                                                                                      
                                       ``:oss/                                        
                           `.+s+.     .+ys--yh+     `./ss+.                           
                          -sh//yy+`   +yy   +yy    -+h+-oyy                           
                          -yh- .oyy/.-sh.   .syo-.:sy-  /yh                           
                 `.-.`    `yh+   -oyyyo.     `/syys:    oys      `.`                  
               `/+ssys+-` `sh+      `                   oys`   .:osyo`                
               -yh- ./syyooyo`                          .sys+/oyo--yh/                
               `yy+    .-:-.                             `-/+/:`  -sh-                
                /yh.                                              oys                 
          ``..---hho---------`   .---------..`      `.-----.`    -hd+---.             
       `./osmNMMMMMMMMMMMMMMMs. +NNMMMMMMMMNNmh+.   yNMMMMMNm-  oNMMMMMNmo++:`        
       +sy--/sdMMMhyyyyyyyNMMh- .oyNMMmyyyyyhNMMm+` -yMMMdyyo:` .oyyNMMNhs+syy`       
       -yy/   /MMM+.`-+/``mMMy-   `mMMh:`````.dMMN:` `MMMy-`-dhhy```mMMy:``+hs        
        -yy+` /MMMo:-mMM+`-oo/.    mMMh:     `dMMN/`  dMMm:`dMMMMy..MMMo-.+yo`        
         .sys`/MMMMNNMMMs-         mMMmyooooymMMNo:   oMMM/sMMMMMM++MMN//oh:          
          `sh+/MMMhyyMMMs- `-`     mMMMMMMMMMNmy+-`   -MMMhMMMsmMMmdMMd/yy+           
    `-/+++oyy-/MMM+.`/hh/.`mNm:`   mMMd+/////:-.`      NMMMMMd/:NMMMMMy:/yyo/:.`      
   +os+//:-..-oMMMo:--:::-/MMMo. .-mMMd+---`           hMMMMN+. oMMMMMo. `-+osyso:`   
   syo     `mNMMMMMNNNNNNNNMMMo.oNNMMMMMNNNN:`         +MMMMs:`  dMMMN/`     ``:syo   
   /yh`     :syyyyyyyyyyyyyyyy+.`+syyyyyyyyo:`         .oyys:`   .oyys:`        +yh   
   -yh-        ````````````````    `````````              ``        ``          oys   
   -+h/------------------------::::::::://////++++++++++++++++++++++///////::::/yd:   
   shdddddddddddddddddddddddddddddhhhhhhhhyyyyyssssssssssssssssyyyyyyyhhhhhhhddddh`   
                                                                                      
  S. Ponce, E. R. Margine, C. Verdi, and F. Giustino,                                 
                                                Comput. Phys. Commun. 209, 116 (2016) 
                                                                                      

     Program EPW v.4.2.0 (svn rev. 13715) starts on  9Aug2017 at 15: 8:24 

     This program is part of the open-source Quantum ESPRESSO suite
     for quantum simulation of materials; please cite
         "P. Giannozzi et al., J. Phys.:Condens. Matter 21 395502 (2009);
          URL http://www.quantum-espresso.org", 
     in publications or presentations arising from this work. More details at
     http://www.quantum-espresso.org/quote

     Parallel version (MPI), running on     1 processors

     Reading data from directory:
     ./si.save/

   Info: using nr1, nr2, nr3 values from input

   Info: using nr1, nr2, nr3 values from input

     IMPORTANT: XC functional enforced from input :
     Exchange-correlation      = PZ ( 1  1  0  0 0 0)
     Any further DFT definition will be discarded
     Please, verify this is what you really want


     G-vector sticks info
     --------------------
     sticks:   dense  smooth     PW     G-vecs:    dense   smooth      PW
     Sum         583     583    199                 9257     9257    1759


     --                                                                         

     bravais-lattice index     =            2
     lattice parameter (a_0)   =      10.2620  a.u.
     unit-cell volume          =     270.1693 (a.u.)^3
     number of atoms/cell      =            2
     number of atomic types    =            1
     kinetic-energy cut-off    =      40.0000  Ry
     charge density cut-off    =     160.0000  Ry
     convergence threshold     =      0.0E+00
     beta                      =       0.0000
     number of iterations used =            0
     Exchange-correlation      = PZ ( 1  1  0  0 0 0)


     celldm(1)=   10.26200  celldm(2)=    0.00000  celldm(3)=    0.00000
     celldm(4)=    0.00000  celldm(5)=    0.00000  celldm(6)=    0.00000

     crystal axes: (cart. coord. in units of a_0)
               a(1) = ( -0.5000  0.0000  0.5000 )  
               a(2) = (  0.0000  0.5000  0.5000 )  
               a(3) = ( -0.5000  0.5000  0.0000 )  

     reciprocal axes: (cart. coord. in units 2 pi/a_0)
               b(1) = ( -1.0000 -1.0000  1.0000 )  
               b(2) = (  1.0000  1.0000  1.0000 )  
               b(3) = ( -1.0000  1.0000 -1.0000 )  


     Atoms inside the unit cell: 

   Cartesian axes

     site n.  atom      mass           positions (a_0 units)
        1        Si  28.0879   tau( 1) = (    0.00000    0.00000    0.00000  )
        2        Si  28.0879   tau( 2) = (    0.25000    0.25000    0.25000  )

     25 Sym.Ops. (with q -> -q+G )


     G cutoff =  426.7999  (   9257 G-vectors)     FFT grid: ( 30, 30, 30)
     number of k points=   64
                       cart. coord. in units 2pi/a_0
        k(    1) = (   0.0000000   0.0000000   0.0000000), wk =   0.0312500
        k(    2) = (  -0.2500000   0.2500000  -0.2500000), wk =   0.0312500
        k(    3) = (  -0.5000000   0.5000000  -0.5000000), wk =   0.0312500
        k(    4) = (  -0.7500000   0.7500000  -0.7500000), wk =   0.0312500
        k(    5) = (   0.2500000   0.2500000   0.2500000), wk =   0.0312500
        k(    6) = (   0.0000000   0.5000000   0.0000000), wk =   0.0312500
        k(    7) = (  -0.2500000   0.7500000  -0.2500000), wk =   0.0312500
        k(    8) = (  -0.5000000   1.0000000  -0.5000000), wk =   0.0312500
        k(    9) = (   0.5000000   0.5000000   0.5000000), wk =   0.0312500
        k(   10) = (   0.2500000   0.7500000   0.2500000), wk =   0.0312500
        k(   11) = (   0.0000000   1.0000000   0.0000000), wk =   0.0312500
        k(   12) = (  -0.2500000   1.2500000  -0.2500000), wk =   0.0312500
        k(   13) = (   0.7500000   0.7500000   0.7500000), wk =   0.0312500
        k(   14) = (   0.5000000   1.0000000   0.5000000), wk =   0.0312500
        k(   15) = (   0.2500000   1.2500000   0.2500000), wk =   0.0312500
        k(   16) = (   0.0000000   1.5000000   0.0000000), wk =   0.0312500
        k(   17) = (  -0.2500000  -0.2500000   0.2500000), wk =   0.0312500
        k(   18) = (  -0.5000000   0.0000000   0.0000000), wk =   0.0312500
        k(   19) = (  -0.7500000   0.2500000  -0.2500000), wk =   0.0312500
        k(   20) = (  -1.0000000   0.5000000  -0.5000000), wk =   0.0312500
        k(   21) = (   0.0000000   0.0000000   0.5000000), wk =   0.0312500
        k(   22) = (  -0.2500000   0.2500000   0.2500000), wk =   0.0312500
        k(   23) = (  -0.5000000   0.5000000   0.0000000), wk =   0.0312500
        k(   24) = (  -0.7500000   0.7500000  -0.2500000), wk =   0.0312500
        k(   25) = (   0.2500000   0.2500000   0.7500000), wk =   0.0312500
        k(   26) = (   0.0000000   0.5000000   0.5000000), wk =   0.0312500
        k(   27) = (  -0.2500000   0.7500000   0.2500000), wk =   0.0312500
        k(   28) = (  -0.5000000   1.0000000   0.0000000), wk =   0.0312500
        k(   29) = (   0.5000000   0.5000000   1.0000000), wk =   0.0312500
        k(   30) = (   0.2500000   0.7500000   0.7500000), wk =   0.0312500
        k(   31) = (   0.0000000   1.0000000   0.5000000), wk =   0.0312500
        k(   32) = (  -0.2500000   1.2500000   0.2500000), wk =   0.0312500
        k(   33) = (  -0.5000000  -0.5000000   0.5000000), wk =   0.0312500
        k(   34) = (  -0.7500000  -0.2500000   0.2500000), wk =   0.0312500
        k(   35) = (  -1.0000000   0.0000000   0.0000000), wk =   0.0312500
        k(   36) = (  -1.2500000   0.2500000  -0.2500000), wk =   0.0312500
        k(   37) = (  -0.2500000  -0.2500000   0.7500000), wk =   0.0312500
        k(   38) = (  -0.5000000   0.0000000   0.5000000), wk =   0.0312500
        k(   39) = (  -0.7500000   0.2500000   0.2500000), wk =   0.0312500
        k(   40) = (  -1.0000000   0.5000000   0.0000000), wk =   0.0312500
        k(   41) = (   0.0000000   0.0000000   1.0000000), wk =   0.0312500
        k(   42) = (  -0.2500000   0.2500000   0.7500000), wk =   0.0312500
        k(   43) = (  -0.5000000   0.5000000   0.5000000), wk =   0.0312500
        k(   44) = (  -0.7500000   0.7500000   0.2500000), wk =   0.0312500
        k(   45) = (   0.2500000   0.2500000   1.2500000), wk =   0.0312500
        k(   46) = (   0.0000000   0.5000000   1.0000000), wk =   0.0312500
        k(   47) = (  -0.2500000   0.7500000   0.7500000), wk =   0.0312500
        k(   48) = (  -0.5000000   1.0000000   0.5000000), wk =   0.0312500
        k(   49) = (  -0.7500000  -0.7500000   0.7500000), wk =   0.0312500
        k(   50) = (  -1.0000000  -0.5000000   0.5000000), wk =   0.0312500
        k(   51) = (  -1.2500000  -0.2500000   0.2500000), wk =   0.0312500
        k(   52) = (  -1.5000000   0.0000000   0.0000000), wk =   0.0312500
        k(   53) = (  -0.5000000  -0.5000000   1.0000000), wk =   0.0312500
        k(   54) = (  -0.7500000  -0.2500000   0.7500000), wk =   0.0312500
        k(   55) = (  -1.0000000   0.0000000   0.5000000), wk =   0.0312500
        k(   56) = (  -1.2500000   0.2500000   0.2500000), wk =   0.0312500
        k(   57) = (  -0.2500000  -0.2500000   1.2500000), wk =   0.0312500
        k(   58) = (  -0.5000000   0.0000000   1.0000000), wk =   0.0312500
        k(   59) = (  -0.7500000   0.2500000   0.7500000), wk =   0.0312500
        k(   60) = (  -1.0000000   0.5000000   0.5000000), wk =   0.0312500
        k(   61) = (   0.0000000   0.0000000   1.5000000), wk =   0.0312500
        k(   62) = (  -0.2500000   0.2500000   1.2500000), wk =   0.0312500
        k(   63) = (  -0.5000000   0.5000000   1.0000000), wk =   0.0312500
        k(   64) = (  -0.7500000   0.7500000   0.7500000), wk =   0.0312500

     PseudoPot. # 1 for Si read from file:
     ./Si.pz-vbc.UPF
     MD5 check sum: 6dfa03ddd5817404712e03e4d12deb78
     Pseudo is Norm-conserving, Zval =  4.0
     Generated by new atomic code, or converted to UPF format
     Using radial grid of  431 points,  2 beta functions with: 
                l(1) =   0
                l(2) =   1
     EPW          :     0.09s CPU         0.10s WALL

     EPW          :     0.20s CPU         0.20s WALL

     No wavefunction gauge setting applied
     -------------------------------------------------------------------
     Wannierization on  4 x  4 x  4 electronic grid
     -------------------------------------------------------------------

     Spin CASE ( default = unpolarized )

     Initializing Wannier90


     Initial Wannier projections

     (   0.00000   0.00000   0.00000) :  l =  -3 mr =   1
     (   0.00000   0.00000   0.00000) :  l =  -3 mr =   2
     (   0.00000   0.00000   0.00000) :  l =  -3 mr =   3
     (   0.00000   0.00000   0.00000) :  l =  -3 mr =   4
     (  -0.25000   0.75000  -0.25000) :  l =  -3 mr =   1
     (  -0.25000   0.75000  -0.25000) :  l =  -3 mr =   2
     (  -0.25000   0.75000  -0.25000) :  l =  -3 mr =   3
     (  -0.25000   0.75000  -0.25000) :  l =  -3 mr =   4

      - Number of bands is (  8)
      - Number of wannier functions is (  8)
      - All guiding functions are given 

  Reading data about k-point neighbours 

      - All neighbours are found 

     AMN
      k points =    64 in    1 pools
            1 of   64 on ionode
            2 of   64 on ionode
            3 of   64 on ionode
            4 of   64 on ionode
            5 of   64 on ionode
            6 of   64 on ionode
            7 of   64 on ionode
            8 of   64 on ionode
            9 of   64 on ionode
           10 of   64 on ionode
           11 of   64 on ionode
           12 of   64 on ionode
           13 of   64 on ionode
           14 of   64 on ionode
           15 of   64 on ionode
           16 of   64 on ionode
           17 of   64 on ionode
           18 of   64 on ionode
           19 of   64 on ionode
           20 of   64 on ionode
           21 of   64 on ionode
           22 of   64 on ionode
           23 of   64 on ionode
           24 of   64 on ionode
           25 of   64 on ionode
           26 of   64 on ionode
           27 of   64 on ionode
           28 of   64 on ionode
           29 of   64 on ionode
           30 of   64 on ionode
           31 of   64 on ionode
           32 of   64 on ionode
           33 of   64 on ionode
           34 of   64 on ionode
           35 of   64 on ionode
           36 of   64 on ionode
           37 of   64 on ionode
           38 of   64 on ionode
           39 of   64 on ionode
           40 of   64 on ionode
           41 of   64 on ionode
           42 of   64 on ionode
           43 of   64 on ionode
           44 of   64 on ionode
           45 of   64 on ionode
           46 of   64 on ionode
           47 of   64 on ionode
           48 of   64 on ionode
           49 of   64 on ionode
           50 of   64 on ionode
           51 of   64 on ionode
           52 of   64 on ionode
           53 of   64 on ionode
           54 of   64 on ionode
           55 of   64 on ionode
           56 of   64 on ionode
           57 of   64 on ionode
           58 of   64 on ionode
           59 of   64 on ionode
           60 of   64 on ionode
           61 of   64 on ionode
           62 of   64 on ionode
           63 of   64 on ionode
           64 of   64 on ionode

     AMN calculated

     MMN
      k points =    64 in    1 pools
            1 of   64 on ionode
            2 of   64 on ionode
            3 of   64 on ionode
            4 of   64 on ionode
            5 of   64 on ionode
            6 of   64 on ionode
            7 of   64 on ionode
            8 of   64 on ionode
            9 of   64 on ionode
           10 of   64 on ionode
           11 of   64 on ionode
           12 of   64 on ionode
           13 of   64 on ionode
           14 of   64 on ionode
           15 of   64 on ionode
           16 of   64 on ionode
           17 of   64 on ionode
           18 of   64 on ionode
           19 of   64 on ionode
           20 of   64 on ionode
           21 of   64 on ionode
           22 of   64 on ionode
           23 of   64 on ionode
           24 of   64 on ionode
           25 of   64 on ionode
           26 of   64 on ionode
           27 of   64 on ionode
           28 of   64 on ionode
           29 of   64 on ionode
           30 of   64 on ionode
           31 of   64 on ionode
           32 of   64 on ionode
           33 of   64 on ionode
           34 of   64 on ionode
           35 of   64 on ionode
           36 of   64 on ionode
           37 of   64 on ionode
           38 of   64 on ionode
           39 of   64 on ionode
           40 of   64 on ionode
           41 of   64 on ionode
           42 of   64 on ionode
           43 of   64 on ionode
           44 of   64 on ionode
           45 of   64 on ionode
           46 of   64 on ionode
           47 of   64 on ionode
           48 of   64 on ionode
           49 of   64 on ionode
           50 of   64 on ionode
           51 of   64 on ionode
           52 of   64 on ionode
           53 of   64 on ionode
           54 of   64 on ionode
           55 of   64 on ionode
           56 of   64 on ionode
           57 of   64 on ionode
           58 of   64 on ionode
           59 of   64 on ionode
           60 of   64 on ionode
           61 of   64 on ionode
           62 of   64 on ionode
           63 of   64 on ionode
           64 of   64 on ionode
     MMN calculated

     Running Wannier90

     Wannier Function centers (cartesian, alat) and spreads (ang):

     (   0.04577   0.04577   0.04577) :   2.92426
     (   0.04577  -0.04577  -0.04577) :   2.92426
     (  -0.04577   0.04577  -0.04577) :   2.92426
     (  -0.04577  -0.04577   0.04577) :   2.92426
     (   0.33390   0.33390   0.33390) :   2.46545
     (   0.33390   0.16610   0.16610) :   2.46545
     (   0.16610   0.33390   0.16610) :   2.46545
     (   0.16610   0.16610   0.33390) :   2.46545

     -------------------------------------------------------------------
     WANNIER      :     24.13s CPU     24.21s WALL (       1 calls)
     -------------------------------------------------------------------

     Dipole matrix elements calculated


     Calculating kmap and kgmap
     Progress  kmap: ########################################
     Progress kgmap: ########################################
     kmaps        :      1.36s CPU      1.36s WALL (       1 calls)
     Symmetries of bravais lattice:  48
     Symmetries of crystal:          24


     ===================================================================
     irreducible q point #    1
     ===================================================================

     Symmetries of small group of q: 24
          in addition sym. q -> -q+G:

     Number of q in the star =    1
     List of q in the star:
          1   0.000000000   0.000000000   0.000000000
        Imposing acoustic sum rule on the dynamical matrix

        q(    1 ) = (   0.0000000   0.0000000   0.0000000 )

     Writing epmatq on .epb files


     The .epb files have been correctly written


     Writing Hamiltonian, Dynamical matrix and EP vertex in Wann rep to file


     Reading Hamiltonian, Dynamical matrix and EP vertex in Wann rep from file


     Finished reading Wann rep data from file

     ===================================================================
     Memory usage:  VmHWM =        50Mb
                   VmPeak =       235Mb
     ===================================================================
     
      Using q-mesh file: ./qgrid.txt
     Size of q point mesh for interpolation:        512
      Using k-mesh file: ./LGX.txt
     WARNING: k-point weigths do not add up to 1 [loadkmesh_para]
     Size of k point mesh for interpolation:        452
     Max number of k points per pool:              452

     Fermi energy coarse grid =   0.000000 eV

     ===================================================================

     Fermi energy is read from the input file: Ef =   6.650000 eV

     ===================================================================

              ibndmin =     2  ebndmin =     0.269
              ibndmax =     8  ebndmax =     0.709


     Number of ep-matrix elements per pool :        66444 ~=  519.09 Kb (@ 8 bytes/ DP)

     ===================================================================
     Electron-plasmon Self-Energy in the Migdal Approximation
     ===================================================================


     Fermi Surface thickness =   3.000000 eV

     Golden Rule strictly enforced with T =   0.001723 eV
     Gaussian Broadening:   0.010000 eV, ngauss=   1
 
             nel       = .1000000000E-01
             meff      = .2500000000E+00
             rs        = .3878000905E+00
             kF        = .1031007094E+00
             vF        = .4124028376E+00
             fermi_en  = .4251902511E-01
             qTF       = .1811573213E+00
             wpl       = .2490326445E-01
             qcut      = .4931247291E-01
             eps0      = .2734831257E+10
             epsiHEG   = .1200000000E+02
             deltaeps  = .8333333297E-01

     ===================================================================
     Electron Spectral Function in the Migdal Approximation
     ===================================================================


     Fermi Surface thickness =   3.000000 eV

     Golden Rule strictly enforced with T =   0.001723 eV
     Gaussian Broadening:   0.010000 eV, ngauss=   1
 
     The sum rule to conserve the number of electron is enforced.
     The self energy is rescaled so that its real part is zero at the Fermi level.
     The sum rule replace the explicit calculation of the Debye-Waller term.
 
     Progression iq (fine) =         50/       512
     Progression iq (fine) =        100/       512
     Progression iq (fine) =        150/       512
     Progression iq (fine) =        200/       512
     Progression iq (fine) =        250/       512
     Progression iq (fine) =        300/       512
     Progression iq (fine) =        350/       512
     Progression iq (fine) =        400/       512
     Progression iq (fine) =        450/       512
     Progression iq (fine) =        500/       512
     Average over degenerate eigenstates is performed
     WARNING: only the eigenstates within the Fermi window are meaningful

     ik =       1 coord.:    0.5000000   0.5000000   0.5000000
     -------------------------------------------------------------------
     E(   2 )=  -7.5788 eV   Re[Sigma]=    2291.880005 meV Im[Sigma]=       0.000000 meV     Z=       0.122357 lam=       7.172799
     E(   3 )=  -1.8013 eV   Re[Sigma]=    1937.519737 meV Im[Sigma]=       0.000000 meV     Z=       0.162231 lam=       5.164033
     E(   4 )=  -1.8013 eV   Re[Sigma]=    1937.519737 meV Im[Sigma]=       0.000000 meV     Z=       0.162231 lam=       5.164033
     E(   5 )=   0.8876 eV   Re[Sigma]=   -1766.250868 meV Im[Sigma]=       0.000000 meV     Z=       0.188696 lam=       4.299522
     E(   6 )=   2.7298 eV   Re[Sigma]=   -2065.201627 meV Im[Sigma]=       0.000000 meV     Z=       0.146457 lam=       5.827961
     E(   7 )=   2.7298 eV   Re[Sigma]=   -2065.201627 meV Im[Sigma]=       0.000000 meV     Z=       0.146457 lam=       5.827961
     E(   8 )=   6.9549 eV   Re[Sigma]=   -2564.570956 meV Im[Sigma]=       0.000000 meV     Z=       0.098212 lam=       9.182091
     -------------------------------------------------------------------


     ik =       2 coord.:    0.4952381   0.4952381   0.4952381
     -------------------------------------------------------------------
     E(   2 )=  -7.5767 eV   Re[Sigma]=    2225.389202 meV Im[Sigma]=       0.000000 meV     Z=       0.128977 lam=       6.753298
     E(   3 )=  -1.8010 eV   Re[Sigma]=    1798.041500 meV Im[Sigma]=       0.000000 meV     Z=       0.183490 lam=       4.449882
     E(   4 )=  -1.8009 eV   Re[Sigma]=    2063.701881 meV Im[Sigma]=       0.000000 meV     Z=       0.146860 lam=       5.809188
     E(   5 )=   0.8877 eV   Re[Sigma]=   -1768.635226 meV Im[Sigma]=       0.000000 meV     Z=       0.188292 lam=       4.310912
     E(   6 )=   2.7301 eV   Re[Sigma]=   -2158.458388 meV Im[Sigma]=       0.000000 meV     Z=       0.136126 lam=       6.346162
     E(   7 )=   2.7302 eV   Re[Sigma]=   -1988.971497 meV Im[Sigma]=       0.000000 meV     Z=       0.156152 lam=       5.404032
     E(   8 )=   6.9554 eV   Re[Sigma]=   -2583.675781 meV Im[Sigma]=       0.000000 meV     Z=       0.096896 lam=       9.320303
     -------------------------------------------------------------------


     ik =       3 coord.:    0.4904762   0.4904762   0.4904762
     -------------------------------------------------------------------
     E(   2 )=  -7.5706 eV   Re[Sigma]=    2163.449946 meV Im[Sigma]=       0.000000 meV     Z=       0.135543 lam=       6.377750
     E(   3 )=  -1.8003 eV   Re[Sigma]=    1788.752870 meV Im[Sigma]=       0.000000 meV     Z=       0.185040 lam=       4.404250
     E(   4 )=  -1.7998 eV   Re[Sigma]=    2059.979522 meV Im[Sigma]=       0.000000 meV     Z=       0.147324 lam=       5.787763
     E(   5 )=   0.8882 eV   Re[Sigma]=   -1771.224667 meV Im[Sigma]=       0.000000 meV     Z=       0.187850 lam=       4.323405
     E(   6 )=   2.7309 eV   Re[Sigma]=   -2164.514272 meV Im[Sigma]=       0.000000 meV     Z=       0.135471 lam=       6.381673
     E(   7 )=   2.7314 eV   Re[Sigma]=   -2000.153036 meV Im[Sigma]=       0.000000 meV     Z=       0.154694 lam=       5.464363
     E(   8 )=   6.9568 eV   Re[Sigma]=   -2603.588953 meV Im[Sigma]=       0.000000 meV     Z=       0.095525 lam=       9.468415
     -------------------------------------------------------------------


     ik =       4 coord.:    0.4857143   0.4857143   0.4857143
     -------------------------------------------------------------------
     E(   2 )=  -7.5605 eV   Re[Sigma]=    2105.967264 meV Im[Sigma]=       0.000000 meV     Z=       0.142010 lam=       6.041747
     E(   3 )=  -1.7990 eV   Re[Sigma]=    1780.115350 meV Im[Sigma]=       0.000000 meV     Z=       0.186493 lam=       4.362136
     E(   4 )=  -1.7980 eV   Re[Sigma]=    2055.927292 meV Im[Sigma]=       0.000000 meV     Z=       0.147822 lam=       5.764894
     E(   5 )=   0.8889 eV   Re[Sigma]=   -1774.032683 meV Im[Sigma]=       0.000000 meV     Z=       0.187369 lam=       4.337062
     E(   6 )=   2.7324 eV   Re[Sigma]=   -2169.992895 meV Im[Sigma]=       0.000000 meV     Z=       0.134879 lam=       6.414040
     E(   7 )=   2.7333 eV   Re[Sigma]=   -2012.034464 meV Im[Sigma]=       0.000000 meV     Z=       0.153164 lam=       5.528944
     E(   8 )=   6.9591 eV   Re[Sigma]=   -2624.132574 meV Im[Sigma]=       0.000000 meV     Z=       0.094110 lam=       9.625860
     -------------------------------------------------------------------


     ik =       5 coord.:    0.4809524   0.4809524   0.4809524
     -------------------------------------------------------------------
     E(   2 )=  -7.5463 eV   Re[Sigma]=    2052.816180 meV Im[Sigma]=       0.000000 meV     Z=       0.148338 lam=       5.741348
     E(   3 )=  -1.7972 eV   Re[Sigma]=    1772.130311 meV Im[Sigma]=       0.000000 meV     Z=       0.187846 lam=       4.323500
     E(   4 )=  -1.7955 eV   Re[Sigma]=    2051.582909 meV Im[Sigma]=       0.000000 meV     Z=       0.148351 lam=       5.740783
     E(   5 )=   0.8900 eV   Re[Sigma]=   -1777.069739 meV Im[Sigma]=       0.000000 meV     Z=       0.186848 lam=       4.351940
     E(   6 )=   2.7343 eV   Re[Sigma]=   -2174.820398 meV Im[Sigma]=       0.000000 meV     Z=       0.134358 lam=       6.442814
     E(   7 )=   2.7361 eV   Re[Sigma]=   -2024.604766 meV Im[Sigma]=       0.000000 meV     Z=       0.151566 lam=       5.597792
     E(   8 )=   6.9624 eV   Re[Sigma]=   -2645.111924 meV Im[Sigma]=       0.000000 meV     Z=       0.092662 lam=       9.791962
     -------------------------------------------------------------------


     ik =       6 coord.:    0.4761905   0.4761905   0.4761905
     -------------------------------------------------------------------
     E(   2 )=  -7.5284 eV   Re[Sigma]=    2003.840671 meV Im[Sigma]=       0.000000 meV     Z=       0.154488 lam=       5.472980
     E(   3 )=  -1.7949 eV   Re[Sigma]=    1764.792148 meV Im[Sigma]=       0.000000 meV     Z=       0.189098 lam=       4.288274
     E(   4 )=  -1.7923 eV   Re[Sigma]=    2046.993886 meV Im[Sigma]=       0.000000 meV     Z=       0.148905 lam=       5.715687
     E(   5 )=   0.8913 eV   Re[Sigma]=   -1780.345093 meV Im[Sigma]=       0.000000 meV     Z=       0.186286 lam=       4.368088
     E(   6 )=   2.7369 eV   Re[Sigma]=   -2178.937737 meV Im[Sigma]=       0.000000 meV     Z=       0.133911 lam=       6.467635
     E(   7 )=   2.7396 eV   Re[Sigma]=   -2037.842105 meV Im[Sigma]=       0.000000 meV     Z=       0.149906 lam=       5.670867
     E(   8 )=   6.9664 eV   Re[Sigma]=   -2666.312351 meV Im[Sigma]=       0.000000 meV     Z=       0.091192 lam=       9.965899
     -------------------------------------------------------------------


     ik =       7 coord.:    0.4714286   0.4714286   0.4714286
     -------------------------------------------------------------------
     E(   2 )=  -7.5067 eV   Re[Sigma]=    1958.855804 meV Im[Sigma]=       0.000000 meV     Z=       0.160427 lam=       5.233380
     E(   3 )=  -1.7922 eV   Re[Sigma]=    1758.088657 meV Im[Sigma]=       0.000000 meV     Z=       0.190246 lam=       4.256358
     E(   4 )=  -1.7885 eV   Re[Sigma]=    2042.216533 meV Im[Sigma]=       0.000000 meV     Z=       0.149479 lam=       5.689913
     E(   5 )=   0.8930 eV   Re[Sigma]=   -1783.866691 meV Im[Sigma]=       0.000000 meV     Z=       0.185682 lam=       4.385551
     E(   6 )=   2.7399 eV   Re[Sigma]=   -2182.302171 meV Im[Sigma]=       0.000000 meV     Z=       0.133543 lam=       6.488242
     E(   7 )=   2.7438 eV   Re[Sigma]=   -2051.712604 meV Im[Sigma]=       0.000000 meV     Z=       0.148191 lam=       5.748069
     E(   8 )=   6.9713 eV   Re[Sigma]=   -2687.497319 meV Im[Sigma]=       0.000000 meV     Z=       0.089713 lam=      10.146652
     -------------------------------------------------------------------


     ik =       8 coord.:    0.4666667   0.4666667   0.4666667
     -------------------------------------------------------------------
     E(   2 )=  -7.4815 eV   Re[Sigma]=    1917.652185 meV Im[Sigma]=       0.000000 meV     Z=       0.166125 lam=       5.019557
     E(   3 )=  -1.7889 eV   Re[Sigma]=    1752.000772 meV Im[Sigma]=       0.000000 meV     Z=       0.191291 lam=       4.227624
     E(   4 )=  -1.7839 eV   Re[Sigma]=    2037.315435 meV Im[Sigma]=       0.000000 meV     Z=       0.150064 lam=       5.663814
     E(   5 )=   0.8950 eV   Re[Sigma]=   -1787.641076 meV Im[Sigma]=       0.000000 meV     Z=       0.185036 lam=       4.404364
     E(   6 )=   2.7435 eV   Re[Sigma]=   -2184.888031 meV Im[Sigma]=       0.000000 meV     Z=       0.133254 lam=       6.504481
     E(   7 )=   2.7488 eV   Re[Sigma]=   -2066.169536 meV Im[Sigma]=       0.000000 meV     Z=       0.146429 lam=       5.829225
     E(   8 )=   6.9769 eV   Re[Sigma]=   -2708.406461 meV Im[Sigma]=       0.000000 meV     Z=       0.088238 lam=      10.332942
     -------------------------------------------------------------------


     ik =       9 coord.:    0.4619048   0.4619048   0.4619048
     -------------------------------------------------------------------
     E(   2 )=  -7.4528 eV   Re[Sigma]=    1880.001806 meV Im[Sigma]=       0.000000 meV     Z=       0.171563 lam=       4.828770
     E(   3 )=  -1.7852 eV   Re[Sigma]=    1746.501521 meV Im[Sigma]=       0.000000 meV     Z=       0.192237 lam=       4.201911
     E(   4 )=  -1.7788 eV   Re[Sigma]=    2032.363543 meV Im[Sigma]=       0.000000 meV     Z=       0.150653 lam=       5.637783
     E(   5 )=   0.8973 eV   Re[Sigma]=   -1791.673327 meV Im[Sigma]=       0.000000 meV     Z=       0.184347 lam=       4.424555
     E(   6 )=   2.7476 eV   Re[Sigma]=   -2186.686867 meV Im[Sigma]=       0.000000 meV     Z=       0.133044 lam=       6.516304
     E(   7 )=   2.7544 eV   Re[Sigma]=   -2081.152836 meV Im[Sigma]=       0.000000 meV     Z=       0.144632 lam=       5.914087
     E(   8 )=   6.9832 eV   Re[Sigma]=   -2728.753767 meV Im[Sigma]=       0.000000 meV     Z=       0.086782 lam=      10.523149
     -------------------------------------------------------------------


     ik =      10 coord.:    0.4571429   0.4571429   0.4571429
     -------------------------------------------------------------------
     E(   2 )=  -7.4209 eV   Re[Sigma]=    1845.664493 meV Im[Sigma]=       0.000000 meV     Z=       0.176725 lam=       4.658515
     E(   3 )=  -1.7810 eV   Re[Sigma]=    1741.553886 meV Im[Sigma]=       0.000000 meV     Z=       0.193087 lam=       4.179010
     E(   4 )=  -1.7730 eV   Re[Sigma]=    2027.443172 meV Im[Sigma]=       0.000000 meV     Z=       0.151234 lam=       5.612266
     E(   5 )=   0.9000 eV   Re[Sigma]=   -1795.967001 meV Im[Sigma]=       0.000000 meV     Z=       0.183616 lam=       4.446146
     E(   6 )=   2.7522 eV   Re[Sigma]=   -2187.707014 meV Im[Sigma]=       0.000000 meV     Z=       0.132912 lam=       6.523766
     E(   7 )=   2.7607 eV   Re[Sigma]=   -2096.588901 meV Im[Sigma]=       0.000000 meV     Z=       0.142810 lam=       6.002329
     E(   8 )=   6.9900 eV   Re[Sigma]=   -2748.226105 meV Im[Sigma]=       0.000000 meV     Z=       0.085359 lam=      10.715221
     -------------------------------------------------------------------


     ik =      11 coord.:    0.4523810   0.4523810   0.4523810
     -------------------------------------------------------------------
     E(   2 )=  -7.3859 eV   Re[Sigma]=    1814.394272 meV Im[Sigma]=       0.000000 meV     Z=       0.181603 lam=       4.506514
     E(   3 )=  -1.7764 eV   Re[Sigma]=    1737.107071 meV Im[Sigma]=       0.000000 meV     Z=       0.193849 lam=       4.158643
     E(   4 )=  -1.7666 eV   Re[Sigma]=    2022.648347 meV Im[Sigma]=       0.000000 meV     Z=       0.151797 lam=       5.587761
     E(   5 )=   0.9029 eV   Re[Sigma]=   -1800.524106 meV Im[Sigma]=       0.000000 meV     Z=       0.182844 lam=       4.469150
     E(   6 )=   2.7573 eV   Re[Sigma]=   -2192.477939 meV Im[Sigma]=       0.000000 meV     Z=       0.132396 lam=       6.553078
     E(   7 )=   2.7676 eV   Re[Sigma]=   -2107.604729 meV Im[Sigma]=       0.000000 meV     Z=       0.141542 lam=       6.065017
     E(   8 )=   6.9974 eV   Re[Sigma]=   -2766.482377 meV Im[Sigma]=       0.000000 meV     Z=       0.083987 lam=      10.906559
     -------------------------------------------------------------------


     ik =      12 coord.:    0.4476190   0.4476190   0.4476190
     -------------------------------------------------------------------
     E(   2 )=  -7.3480 eV   Re[Sigma]=    1785.945167 meV Im[Sigma]=       0.000000 meV     Z=       0.186195 lam=       4.370704
     E(   3 )=  -1.7713 eV   Re[Sigma]=    1732.160324 meV Im[Sigma]=       0.000000 meV     Z=       0.194718 lam=       4.135619
     E(   4 )=  -1.7597 eV   Re[Sigma]=    2018.965667 meV Im[Sigma]=       0.000000 meV     Z=       0.152224 lam=       5.569255
     E(   5 )=   0.9062 eV   Re[Sigma]=   -1805.345119 meV Im[Sigma]=       0.000000 meV     Z=       0.182031 lam=       4.493572
     E(   6 )=   2.7628 eV   Re[Sigma]=   -2197.437276 meV Im[Sigma]=       0.000000 meV     Z=       0.131861 lam=       6.583717
     E(   7 )=   2.7750 eV   Re[Sigma]=   -2117.800584 meV Im[Sigma]=       0.000000 meV     Z=       0.140385 lam=       6.123274
     E(   8 )=   7.0051 eV   Re[Sigma]=   -2783.153846 meV Im[Sigma]=       0.000000 meV     Z=       0.082686 lam=      11.093904
     -------------------------------------------------------------------


     ik =      13 coord.:    0.4428571   0.4428571   0.4428571
     -------------------------------------------------------------------
     E(   2 )=  -7.3075 eV   Re[Sigma]=    1760.076118 meV Im[Sigma]=       0.000000 meV     Z=       0.190504 lam=       4.249225
     E(   3 )=  -1.7658 eV   Re[Sigma]=    1727.437333 meV Im[Sigma]=       0.000000 meV     Z=       0.195553 lam=       4.113699
     E(   4 )=  -1.7522 eV   Re[Sigma]=    2015.734385 meV Im[Sigma]=       0.000000 meV     Z=       0.152593 lam=       5.553381
     E(   5 )=   0.9099 eV   Re[Sigma]=   -1810.428906 meV Im[Sigma]=       0.000000 meV     Z=       0.181179 lam=       4.519410
     E(   6 )=   2.7687 eV   Re[Sigma]=   -2201.989417 meV Im[Sigma]=       0.000000 meV     Z=       0.131367 lam=       6.612248
     E(   7 )=   2.7830 eV   Re[Sigma]=   -2127.718602 meV Im[Sigma]=       0.000000 meV     Z=       0.139269 lam=       6.180328
     E(   8 )=   7.0131 eV   Re[Sigma]=   -2797.846163 meV Im[Sigma]=       0.000000 meV     Z=       0.081478 lam=      11.273232
     -------------------------------------------------------------------


     ik =      14 coord.:    0.4380952   0.4380952   0.4380952
     -------------------------------------------------------------------
     E(   2 )=  -7.2644 eV   Re[Sigma]=    1736.554886 meV Im[Sigma]=       0.000000 meV     Z=       0.194537 lam=       4.140413
     E(   3 )=  -1.7599 eV   Re[Sigma]=    1722.993349 meV Im[Sigma]=       0.000000 meV     Z=       0.196342 lam=       4.093161
     E(   4 )=  -1.7443 eV   Re[Sigma]=    2012.934766 meV Im[Sigma]=       0.000000 meV     Z=       0.152904 lam=       5.540055
     E(   5 )=   0.9139 eV   Re[Sigma]=   -1815.772817 meV Im[Sigma]=       0.000000 meV     Z=       0.180289 lam=       4.546654
     E(   6 )=   2.7749 eV   Re[Sigma]=   -2206.170321 meV Im[Sigma]=       0.000000 meV     Z=       0.130909 lam=       6.638887
     E(   7 )=   2.7914 eV   Re[Sigma]=   -2137.239068 meV Im[Sigma]=       0.000000 meV     Z=       0.138208 lam=       6.235480
     E(   8 )=   7.0213 eV   Re[Sigma]=   -2810.143987 meV Im[Sigma]=       0.000000 meV     Z=       0.080388 lam=      11.439678
     -------------------------------------------------------------------


     ik =      15 coord.:    0.4333333   0.4333333   0.4333333
     -------------------------------------------------------------------
     E(   2 )=  -7.2189 eV   Re[Sigma]=    1715.160920 meV Im[Sigma]=       0.000000 meV     Z=       0.198303 lam=       4.042778
     E(   3 )=  -1.7535 eV   Re[Sigma]=    1718.693941 meV Im[Sigma]=       0.000000 meV     Z=       0.197110 lam=       4.073299
     E(   4 )=  -1.7359 eV   Re[Sigma]=    2010.720137 meV Im[Sigma]=       0.000000 meV     Z=       0.153138 lam=       5.530054
     E(   5 )=   0.9183 eV   Re[Sigma]=   -1821.372708 meV Im[Sigma]=       0.000000 meV     Z=       0.179363 lam=       4.575287
     E(   6 )=   2.7816 eV   Re[Sigma]=   -2210.243126 meV Im[Sigma]=       0.000000 meV     Z=       0.130459 lam=       6.665266
     E(   7 )=   2.8003 eV   Re[Sigma]=   -2145.988238 meV Im[Sigma]=       0.000000 meV     Z=       0.137243 lam=       6.286340
     E(   8 )=   7.0295 eV   Re[Sigma]=   -2819.619032 meV Im[Sigma]=       0.000000 meV     Z=       0.079444 lam=      11.587541
     -------------------------------------------------------------------


     ik =      16 coord.:    0.4285714   0.4285714   0.4285714
     -------------------------------------------------------------------
     E(   2 )=  -7.1711 eV   Re[Sigma]=    1695.687272 meV Im[Sigma]=       0.000000 meV     Z=       0.201816 lam=       3.954999
     E(   3 )=  -1.7468 eV   Re[Sigma]=    1714.448423 meV Im[Sigma]=       0.000000 meV     Z=       0.197877 lam=       4.053638
     E(   4 )=  -1.7270 eV   Re[Sigma]=    2009.196451 meV Im[Sigma]=       0.000000 meV     Z=       0.153282 lam=       5.523915
     E(   5 )=   0.9230 eV   Re[Sigma]=   -1827.222988 meV Im[Sigma]=       0.000000 meV     Z=       0.178403 lam=       4.605284
     E(   6 )=   2.7885 eV   Re[Sigma]=   -2214.152590 meV Im[Sigma]=       0.000000 meV     Z=       0.130021 lam=       6.691053
     E(   7 )=   2.8095 eV   Re[Sigma]=   -2153.943410 meV Im[Sigma]=       0.000000 meV     Z=       0.136374 lam=       6.332769
     E(   8 )=   7.0377 eV   Re[Sigma]=   -2825.842330 meV Im[Sigma]=       0.000000 meV     Z=       0.078676 lam=      11.710385
     -------------------------------------------------------------------


     ik =      17 coord.:    0.4238095   0.4238095   0.4238095
     -------------------------------------------------------------------
     E(   2 )=  -7.1214 eV   Re[Sigma]=    1677.941689 meV Im[Sigma]=       0.000000 meV     Z=       0.205090 lam=       3.875903
     E(   3 )=  -1.7398 eV   Re[Sigma]=    1710.245777 meV Im[Sigma]=       0.000000 meV     Z=       0.198645 lam=       4.034117
     E(   4 )=  -1.7178 eV   Re[Sigma]=    2008.392064 meV Im[Sigma]=       0.000000 meV     Z=       0.153332 lam=       5.521781
     E(   5 )=   0.9281 eV   Re[Sigma]=   -1833.316679 meV Im[Sigma]=       0.000000 meV     Z=       0.177411 lam=       4.636614
     E(   6 )=   2.7957 eV   Re[Sigma]=   -2217.830867 meV Im[Sigma]=       0.000000 meV     Z=       0.129604 lam=       6.715818
     E(   7 )=   2.8190 eV   Re[Sigma]=   -2161.105745 meV Im[Sigma]=       0.000000 meV     Z=       0.135597 lam=       6.374813
     E(   8 )=   7.0456 eV   Re[Sigma]=   -2828.401105 meV Im[Sigma]=       0.000000 meV     Z=       0.078117 lam=      11.801299
     -------------------------------------------------------------------


     ik =      18 coord.:    0.4190476   0.4190476   0.4190476
     -------------------------------------------------------------------
     E(   2 )=  -7.0697 eV   Re[Sigma]=    1661.747038 meV Im[Sigma]=       0.000000 meV     Z=       0.208140 lam=       3.804452
     E(   3 )=  -1.7323 eV   Re[Sigma]=    1706.131629 meV Im[Sigma]=       0.000000 meV     Z=       0.199403 lam=       4.014971
     E(   4 )=  -1.7083 eV   Re[Sigma]=    2008.281884 meV Im[Sigma]=       0.000000 meV     Z=       0.153291 lam=       5.523539
     E(   5 )=   0.9336 eV   Re[Sigma]=   -1839.645500 meV Im[Sigma]=       0.000000 meV     Z=       0.176391 lam=       4.669240
     E(   6 )=   2.8032 eV   Re[Sigma]=   -2221.381723 meV Im[Sigma]=       0.000000 meV     Z=       0.129197 lam=       6.740137
     E(   7 )=   2.8288 eV   Re[Sigma]=   -2167.287193 meV Im[Sigma]=       0.000000 meV     Z=       0.134928 lam=       6.411338
     E(   8 )=   7.0532 eV   Re[Sigma]=   -2826.919984 meV Im[Sigma]=       0.000000 meV     Z=       0.077801 lam=      11.853323
     -------------------------------------------------------------------


     ik =      19 coord.:    0.4142857   0.4142857   0.4142857
     -------------------------------------------------------------------
     E(   2 )=  -7.0161 eV   Re[Sigma]=    1646.941203 meV Im[Sigma]=       0.000000 meV     Z=       0.210982 lam=       3.739733
     E(   3 )=  -1.7246 eV   Re[Sigma]=    1702.158859 meV Im[Sigma]=       0.000000 meV     Z=       0.200141 lam=       3.996475
     E(   4 )=  -1.6984 eV   Re[Sigma]=    2008.833257 meV Im[Sigma]=       0.000000 meV     Z=       0.153162 lam=       5.529042
     E(   5 )=   0.9395 eV   Re[Sigma]=   -1846.199945 meV Im[Sigma]=       0.000000 meV     Z=       0.175343 lam=       4.703116
     E(   6 )=   2.8109 eV   Re[Sigma]=   -2225.744088 meV Im[Sigma]=       0.000000 meV     Z=       0.128715 lam=       6.769095
     E(   7 )=   2.8387 eV   Re[Sigma]=   -2171.324044 meV Im[Sigma]=       0.000000 meV     Z=       0.134490 lam=       6.435489
     E(   8 )=   7.0603 eV   Re[Sigma]=   -2821.085272 meV Im[Sigma]=       0.000000 meV     Z=       0.077760 lam=      11.860027
     -------------------------------------------------------------------


     ik =      20 coord.:    0.4095238   0.4095238   0.4095238
     -------------------------------------------------------------------
     E(   2 )=  -6.9609 eV   Re[Sigma]=    1633.376623 meV Im[Sigma]=       0.000000 meV     Z=       0.213632 lam=       3.680940
     E(   3 )=  -1.7165 eV   Re[Sigma]=    1698.360795 meV Im[Sigma]=       0.000000 meV     Z=       0.200851 lam=       3.978805
     E(   4 )=  -1.6883 eV   Re[Sigma]=    2010.029378 meV Im[Sigma]=       0.000000 meV     Z=       0.152947 lam=       5.538227
     E(   5 )=   0.9458 eV   Re[Sigma]=   -1852.969397 meV Im[Sigma]=       0.000000 meV     Z=       0.174271 lam=       4.738193
     E(   6 )=   2.8187 eV   Re[Sigma]=   -2229.982870 meV Im[Sigma]=       0.000000 meV     Z=       0.128243 lam=       6.797666
     E(   7 )=   2.8488 eV   Re[Sigma]=   -2174.222994 meV Im[Sigma]=       0.000000 meV     Z=       0.134174 lam=       6.452993
     E(   8 )=   7.0668 eV   Re[Sigma]=   -2810.669908 meV Im[Sigma]=       0.000000 meV     Z=       0.078026 lam=      11.816193
     -------------------------------------------------------------------


     ik =      21 coord.:    0.4047619   0.4047619   0.4047619
     -------------------------------------------------------------------
     E(   2 )=  -6.9042 eV   Re[Sigma]=    1620.919562 meV Im[Sigma]=       0.000000 meV     Z=       0.216106 lam=       3.627361
     E(   3 )=  -1.7081 eV   Re[Sigma]=    1694.748506 meV Im[Sigma]=       0.000000 meV     Z=       0.201531 lam=       3.962020
     E(   4 )=  -1.6779 eV   Re[Sigma]=    2011.870554 meV Im[Sigma]=       0.000000 meV     Z=       0.152646 lam=       5.551118
     E(   5 )=   0.9525 eV   Re[Sigma]=   -1859.942222 meV Im[Sigma]=       0.000000 meV     Z=       0.173178 lam=       4.774416
     E(   6 )=   2.8266 eV   Re[Sigma]=   -2234.111408 meV Im[Sigma]=       0.000000 meV     Z=       0.127780 lam=       6.825924
     E(   7 )=   2.8589 eV   Re[Sigma]=   -2175.920870 meV Im[Sigma]=       0.000000 meV     Z=       0.133986 lam=       6.463442
     E(   8 )=   7.0725 eV   Re[Sigma]=   -2795.555699 meV Im[Sigma]=       0.000000 meV     Z=       0.078626 lam=      11.718482
     -------------------------------------------------------------------


     ik =      22 coord.:    0.4000000   0.4000000   0.4000000
     -------------------------------------------------------------------
     E(   2 )=  -6.8459 eV   Re[Sigma]=    1609.449232 meV Im[Sigma]=       0.000000 meV     Z=       0.218418 lam=       3.578375
     E(   3 )=  -1.6995 eV   Re[Sigma]=    1691.316489 meV Im[Sigma]=       0.000000 meV     Z=       0.202180 lam=       3.946098
     E(   4 )=  -1.6674 eV   Re[Sigma]=    2014.368230 meV Im[Sigma]=       0.000000 meV     Z=       0.152258 lam=       5.567794
     E(   5 )=   0.9595 eV   Re[Sigma]=   -1867.105883 meV Im[Sigma]=       0.000000 meV     Z=       0.172066 lam=       4.811725
     E(   6 )=   2.8347 eV   Re[Sigma]=   -2238.142393 meV Im[Sigma]=       0.000000 meV     Z=       0.127325 lam=       6.853936
     E(   7 )=   2.8690 eV   Re[Sigma]=   -2176.366075 meV Im[Sigma]=       0.000000 meV     Z=       0.133931 lam=       6.466509
     E(   8 )=   7.0774 eV   Re[Sigma]=   -2775.749221 meV Im[Sigma]=       0.000000 meV     Z=       0.079580 lam=      11.565966
     -------------------------------------------------------------------


     ik =      23 coord.:    0.3952381   0.3952381   0.3952381
     -------------------------------------------------------------------
     E(   2 )=  -6.7863 eV   Re[Sigma]=    1598.856827 meV Im[Sigma]=       0.000000 meV     Z=       0.220584 lam=       3.533430
     E(   3 )=  -1.6906 eV   Re[Sigma]=    1688.048582 meV Im[Sigma]=       0.000000 meV     Z=       0.202800 lam=       3.930962
     E(   4 )=  -1.6567 eV   Re[Sigma]=    2017.539228 meV Im[Sigma]=       0.000000 meV     Z=       0.151783 lam=       5.588360
     E(   5 )=   0.9670 eV   Re[Sigma]=   -1874.447055 meV Im[Sigma]=       0.000000 meV     Z=       0.170939 lam=       4.850056
     E(   6 )=   2.8428 eV   Re[Sigma]=   -2242.090467 meV Im[Sigma]=       0.000000 meV     Z=       0.126875 lam=       6.881780
     E(   7 )=   2.8791 eV   Re[Sigma]=   -2175.516535 meV Im[Sigma]=       0.000000 meV     Z=       0.134013 lam=       6.461936
     E(   8 )=   7.0811 eV   Re[Sigma]=   -2751.388209 meV Im[Sigma]=       0.000000 meV     Z=       0.080904 lam=      11.360386
     -------------------------------------------------------------------


     ik =      24 coord.:    0.3904762   0.3904762   0.3904762
     -------------------------------------------------------------------
     E(   2 )=  -6.7254 eV   Re[Sigma]=    1589.044544 meV Im[Sigma]=       0.000000 meV     Z=       0.222616 lam=       3.492044
     E(   3 )=  -1.6815 eV   Re[Sigma]=    1684.922196 meV Im[Sigma]=       0.000000 meV     Z=       0.203397 lam=       3.916502
     E(   4 )=  -1.6459 eV   Re[Sigma]=    2021.401759 meV Im[Sigma]=       0.000000 meV     Z=       0.151219 lam=       5.612929
     E(   5 )=   0.9749 eV   Re[Sigma]=   -1881.951747 meV Im[Sigma]=       0.000000 meV     Z=       0.169798 lam=       4.889341
     E(   6 )=   2.8508 eV   Re[Sigma]=   -2245.974558 meV Im[Sigma]=       0.000000 meV     Z=       0.126429 lam=       6.909551
     E(   7 )=   2.8890 eV   Re[Sigma]=   -2173.337601 meV Im[Sigma]=       0.000000 meV     Z=       0.134237 lam=       6.449525
     E(   8 )=   7.0837 eV   Re[Sigma]=   -2722.736701 meV Im[Sigma]=       0.000000 meV     Z=       0.082603 lam=      11.106082
     -------------------------------------------------------------------


     ik =      25 coord.:    0.3857143   0.3857143   0.3857143
     -------------------------------------------------------------------
     E(   2 )=  -6.6633 eV   Re[Sigma]=    1579.924609 meV Im[Sigma]=       0.000000 meV     Z=       0.224528 lam=       3.453792
     E(   3 )=  -1.6722 eV   Re[Sigma]=    1681.911074 meV Im[Sigma]=       0.000000 meV     Z=       0.203974 lam=       3.902591
     E(   4 )=  -1.6350 eV   Re[Sigma]=    2025.972942 meV Im[Sigma]=       0.000000 meV     Z=       0.150566 lam=       5.641605
     E(   5 )=   0.9832 eV   Re[Sigma]=   -1889.605419 meV Im[Sigma]=       0.000000 meV     Z=       0.168648 lam=       4.929509
     E(   6 )=   2.8589 eV   Re[Sigma]=   -2249.819836 meV Im[Sigma]=       0.000000 meV     Z=       0.125986 lam=       6.937381
     E(   7 )=   2.8987 eV   Re[Sigma]=   -2169.800128 meV Im[Sigma]=       0.000000 meV     Z=       0.134605 lam=       6.429125
     E(   8 )=   7.0850 eV   Re[Sigma]=   -2690.169236 meV Im[Sigma]=       0.000000 meV     Z=       0.084677 lam=      10.809580
     -------------------------------------------------------------------


     ik =      26 coord.:    0.3809524   0.3809524   0.3809524
     -------------------------------------------------------------------
     E(   2 )=  -6.6000 eV   Re[Sigma]=    1571.418353 meV Im[Sigma]=       0.000000 meV     Z=       0.226331 lam=       3.418300
     E(   3 )=  -1.6626 eV   Re[Sigma]=    1678.987034 meV Im[Sigma]=       0.000000 meV     Z=       0.204537 lam=       3.889093
     E(   4 )=  -1.6241 eV   Re[Sigma]=    2031.267317 meV Im[Sigma]=       0.000000 meV     Z=       0.149824 lam=       5.674481
     E(   5 )=   0.9919 eV   Re[Sigma]=   -1897.393110 meV Im[Sigma]=       0.000000 meV     Z=       0.167491 lam=       4.970486
     E(   6 )=   2.8668 eV   Re[Sigma]=   -2253.659316 meV Im[Sigma]=       0.000000 meV     Z=       0.125542 lam=       6.965441
     E(   7 )=   2.9081 eV   Re[Sigma]=   -2164.878702 meV Im[Sigma]=       0.000000 meV     Z=       0.135124 lam=       6.400624
     E(   8 )=   7.0848 eV   Re[Sigma]=   -2654.146382 meV Im[Sigma]=       0.000000 meV     Z=       0.087116 lam=      10.478931
     -------------------------------------------------------------------


     ik =      27 coord.:    0.3761905   0.3761905   0.3761905
     -------------------------------------------------------------------
     E(   2 )=  -6.5356 eV   Re[Sigma]=    1563.455339 meV Im[Sigma]=       0.000000 meV     Z=       0.228038 lam=       3.385238
     E(   3 )=  -1.6529 eV   Re[Sigma]=    1676.121111 meV Im[Sigma]=       0.000000 meV     Z=       0.205092 lam=       3.875869
     E(   4 )=  -1.6132 eV   Re[Sigma]=    2037.295982 meV Im[Sigma]=       0.000000 meV     Z=       0.148995 lam=       5.711632
     E(   5 )=   1.0011 eV   Re[Sigma]=   -1905.299551 meV Im[Sigma]=       0.000000 meV     Z=       0.166329 lam=       5.012197
     E(   6 )=   2.8746 eV   Re[Sigma]=   -2257.535359 meV Im[Sigma]=       0.000000 meV     Z=       0.125095 lam=       6.993952
     E(   7 )=   2.9172 eV   Re[Sigma]=   -2158.549803 meV Im[Sigma]=       0.000000 meV     Z=       0.135797 lam=       6.363939
     E(   8 )=   7.0830 eV   Re[Sigma]=   -2615.185275 meV Im[Sigma]=       0.000000 meV     Z=       0.089904 lam=      10.122925
     -------------------------------------------------------------------


     ik =      28 coord.:    0.3714286   0.3714286   0.3714286
     -------------------------------------------------------------------
     E(   2 )=  -6.4702 eV   Re[Sigma]=    1555.972561 meV Im[Sigma]=       0.000000 meV     Z=       0.229657 lam=       3.354315
     E(   3 )=  -1.6430 eV   Re[Sigma]=    1673.284294 meV Im[Sigma]=       0.000000 meV     Z=       0.205644 lam=       3.862781
     E(   4 )=  -1.6022 eV   Re[Sigma]=    2044.066114 meV Im[Sigma]=       0.000000 meV     Z=       0.148080 lam=       5.753111
     E(   5 )=   1.0106 eV   Re[Sigma]=   -1913.309290 meV Im[Sigma]=       0.000000 meV     Z=       0.165165 lam=       5.054563
     E(   6 )=   2.8822 eV   Re[Sigma]=   -2261.501663 meV Im[Sigma]=       0.000000 meV     Z=       0.124639 lam=       7.023194
     E(   7 )=   2.9259 eV   Re[Sigma]=   -2150.789221 meV Im[Sigma]=       0.000000 meV     Z=       0.136631 lam=       6.318996
     E(   8 )=   7.0794 eV   Re[Sigma]=   -2573.829294 meV Im[Sigma]=       0.000000 meV     Z=       0.093020 lam=       9.750340
     -------------------------------------------------------------------


     ik =      29 coord.:    0.3666667   0.3666667   0.3666667
     -------------------------------------------------------------------
     E(   2 )=  -6.4038 eV   Re[Sigma]=    1548.913713 meV Im[Sigma]=       0.000000 meV     Z=       0.231199 lam=       3.325277
     E(   3 )=  -1.6330 eV   Re[Sigma]=    1670.448043 meV Im[Sigma]=       0.000000 meV     Z=       0.206199 lam=       3.849694
     E(   4 )=  -1.5914 eV   Re[Sigma]=    2051.580722 meV Im[Sigma]=       0.000000 meV     Z=       0.147081 lam=       5.798954
     E(   5 )=   1.0206 eV   Re[Sigma]=   -1921.406801 meV Im[Sigma]=       0.000000 meV     Z=       0.164001 lam=       5.097506
     E(   6 )=   2.8896 eV   Re[Sigma]=   -2265.627060 meV Im[Sigma]=       0.000000 meV     Z=       0.124169 lam=       7.053525
     E(   7 )=   2.9342 eV   Re[Sigma]=   -2141.567058 meV Im[Sigma]=       0.000000 meV     Z=       0.137633 lam=       6.265708
     E(   8 )=   7.0741 eV   Re[Sigma]=   -2530.620480 meV Im[Sigma]=       0.000000 meV     Z=       0.096438 lam=       9.369323
     -------------------------------------------------------------------


     ik =      30 coord.:    0.3619048   0.3619048   0.3619048
     -------------------------------------------------------------------
     E(   2 )=  -6.3365 eV   Re[Sigma]=    1542.228517 meV Im[Sigma]=       0.000000 meV     Z=       0.232672 lam=       3.297898
     E(   3 )=  -1.6228 eV   Re[Sigma]=    1667.584647 meV Im[Sigma]=       0.000000 meV     Z=       0.206762 lam=       3.836478
     E(   4 )=  -1.5806 eV   Re[Sigma]=    2059.838554 meV Im[Sigma]=       0.000000 meV     Z=       0.146003 lam=       5.849172
     E(   5 )=   1.0310 eV   Re[Sigma]=   -1929.576597 meV Im[Sigma]=       0.000000 meV     Z=       0.162841 lam=       5.140949
     E(   6 )=   2.8967 eV   Re[Sigma]=   -2270.003369 meV Im[Sigma]=       0.000000 meV     Z=       0.123679 lam=       7.085424
     E(   7 )=   2.9420 eV   Re[Sigma]=   -2130.837527 meV Im[Sigma]=       0.000000 meV     Z=       0.138814 lam=       6.203909
     E(   8 )=   7.0667 eV   Re[Sigma]=   -2486.077165 meV Im[Sigma]=       0.000000 meV     Z=       0.100130 lam=       8.986968
     -------------------------------------------------------------------


     ik =      31 coord.:    0.3571429   0.3571429   0.3571429
     -------------------------------------------------------------------
     E(   2 )=  -6.2682 eV   Re[Sigma]=    1535.872131 meV Im[Sigma]=       0.000000 meV     Z=       0.234084 lam=       3.271980
     E(   3 )=  -1.6125 eV   Re[Sigma]=    1664.667498 meV Im[Sigma]=       0.000000 meV     Z=       0.207339 lam=       3.823010
     E(   4 )=  -1.5699 eV   Re[Sigma]=    2068.834080 meV Im[Sigma]=       0.000000 meV     Z=       0.144849 lam=       5.903755
     E(   5 )=   1.0418 eV   Re[Sigma]=   -1937.803332 meV Im[Sigma]=       0.000000 meV     Z=       0.161686 lam=       5.184811
     E(   6 )=   2.9035 eV   Re[Sigma]=   -2274.754735 meV Im[Sigma]=       0.000000 meV     Z=       0.123160 lam=       7.119531
     E(   7 )=   2.9492 eV   Re[Sigma]=   -2118.526893 meV Im[Sigma]=       0.000000 meV     Z=       0.140188 lam=       6.133294
     E(   8 )=   7.0573 eV   Re[Sigma]=   -2440.677909 meV Im[Sigma]=       0.000000 meV     Z=       0.104068 lam=       8.609109
     -------------------------------------------------------------------


     ik =      32 coord.:    0.3523810   0.3523810   0.3523810
     -------------------------------------------------------------------
     E(   2 )=  -6.1990 eV   Re[Sigma]=    1529.804606 meV Im[Sigma]=       0.000000 meV     Z=       0.235441 lam=       3.247348
     E(   3 )=  -1.6021 eV   Re[Sigma]=    1661.671297 meV Im[Sigma]=       0.000000 meV     Z=       0.207936 lam=       3.809176
     E(   4 )=  -1.5594 eV   Re[Sigma]=    2078.557544 meV Im[Sigma]=       0.000000 meV     Z=       0.143623 lam=       5.962671
     E(   5 )=   1.0529 eV   Re[Sigma]=   -1946.071899 meV Im[Sigma]=       0.000000 meV     Z=       0.160539 lam=       5.229015
     E(   6 )=   2.9099 eV   Re[Sigma]=   -2280.017458 meV Im[Sigma]=       0.000000 meV     Z=       0.122601 lam=       7.156549
     E(   7 )=   2.9558 eV   Re[Sigma]=   -2104.559609 meV Im[Sigma]=       0.000000 meV     Z=       0.141772 lam=       6.053569
     E(   8 )=   7.0458 eV   Re[Sigma]=   -2394.851702 meV Im[Sigma]=       0.000000 meV     Z=       0.108222 lam=       8.240278
     -------------------------------------------------------------------


     ik =      33 coord.:    0.3476190   0.3476190   0.3476190
     -------------------------------------------------------------------
     E(   2 )=  -6.1290 eV   Re[Sigma]=    1523.990407 meV Im[Sigma]=       0.000000 meV     Z=       0.236751 lam=       3.223847
     E(   3 )=  -1.5917 eV   Re[Sigma]=    1658.572233 meV Im[Sigma]=       0.000000 meV     Z=       0.208556 lam=       3.794869
     E(   4 )=  -1.5489 eV   Re[Sigma]=    2088.995032 meV Im[Sigma]=       0.000000 meV     Z=       0.142331 lam=       6.025865
     E(   5 )=   1.0645 eV   Re[Sigma]=   -1954.367517 meV Im[Sigma]=       0.000000 meV     Z=       0.159401 lam=       5.273484
     E(   6 )=   2.9159 eV   Re[Sigma]=   -2285.864769 meV Im[Sigma]=       0.000000 meV     Z=       0.121998 lam=       7.196855
     E(   7 )=   2.9617 eV   Re[Sigma]=   -2088.955287 meV Im[Sigma]=       0.000000 meV     Z=       0.143575 lam=       5.965007
     E(   8 )=   7.0319 eV   Re[Sigma]=   -2348.973547 meV Im[Sigma]=       0.000000 meV     Z=       0.112565 lam=       7.883792
     -------------------------------------------------------------------


     ik =      34 coord.:    0.3428571   0.3428571   0.3428571
     -------------------------------------------------------------------
     E(   2 )=  -6.0581 eV   Re[Sigma]=    1518.397981 meV Im[Sigma]=       0.000000 meV     Z=       0.238019 lam=       3.201344
     E(   3 )=  -1.5811 eV   Re[Sigma]=    1655.348146 meV Im[Sigma]=       0.000000 meV     Z=       0.209205 lam=       3.779991
     E(   4 )=  -1.5386 eV   Re[Sigma]=    2100.128560 meV Im[Sigma]=       0.000000 meV     Z=       0.140979 lam=       6.093259
     E(   5 )=   1.0765 eV   Re[Sigma]=   -1962.675811 meV Im[Sigma]=       0.000000 meV     Z=       0.158274 lam=       5.318143
     E(   6 )=   2.9215 eV   Re[Sigma]=   -2292.292632 meV Im[Sigma]=       0.000000 meV     Z=       0.121353 lam=       7.240442
     E(   7 )=   2.9670 eV   Re[Sigma]=   -2071.846214 meV Im[Sigma]=       0.000000 meV     Z=       0.145591 lam=       5.868543
     E(   8 )=   7.0157 eV   Re[Sigma]=   -2303.364205 meV Im[Sigma]=       0.000000 meV     Z=       0.117070 lam=       7.541918
     -------------------------------------------------------------------


     ik =      35 coord.:    0.3380952   0.3380952   0.3380952
     -------------------------------------------------------------------
     E(   2 )=  -5.9865 eV   Re[Sigma]=    1512.999372 meV Im[Sigma]=       0.000000 meV     Z=       0.239251 lam=       3.179718
     E(   3 )=  -1.5705 eV   Re[Sigma]=    1651.978670 meV Im[Sigma]=       0.000000 meV     Z=       0.209888 lam=       3.764454
     E(   4 )=  -1.5285 eV   Re[Sigma]=    2111.936169 meV Im[Sigma]=       0.000000 meV     Z=       0.139572 lam=       6.164754
     E(   5 )=   1.0889 eV   Re[Sigma]=   -1970.982885 meV Im[Sigma]=       0.000000 meV     Z=       0.157161 lam=       5.362917
     E(   6 )=   2.9266 eV   Re[Sigma]=   -2299.287405 meV Im[Sigma]=       0.000000 meV     Z=       0.120667 lam=       7.287263
     E(   7 )=   2.9715 eV   Re[Sigma]=   -2053.388328 meV Im[Sigma]=       0.000000 meV     Z=       0.147814 lam=       5.765245
     E(   8 )=   6.9970 eV   Re[Sigma]=   -2258.292782 meV Im[Sigma]=       0.000000 meV     Z=       0.121713 lam=       7.216057
     -------------------------------------------------------------------


     ik =      36 coord.:    0.3333333   0.3333333   0.3333333
     -------------------------------------------------------------------
     E(   2 )=  -5.9140 eV   Re[Sigma]=    1507.769877 meV Im[Sigma]=       0.000000 meV     Z=       0.240450 lam=       3.158866
     E(   3 )=  -1.5598 eV   Re[Sigma]=    1648.445384 meV Im[Sigma]=       0.000000 meV     Z=       0.210607 lam=       3.748182
     E(   4 )=  -1.5186 eV   Re[Sigma]=    2124.392007 meV Im[Sigma]=       0.000000 meV     Z=       0.138117 lam=       6.240226
     E(   5 )=   1.1017 eV   Re[Sigma]=   -1979.275376 meV Im[Sigma]=       0.000000 meV     Z=       0.156061 lam=       5.407736
     E(   6 )=   2.9312 eV   Re[Sigma]=   -2306.852504 meV Im[Sigma]=       0.000000 meV     Z=       0.119942 lam=       7.337364
     E(   7 )=   2.9752 eV   Re[Sigma]=   -2033.724528 meV Im[Sigma]=       0.000000 meV     Z=       0.150238 lam=       5.656102
     E(   8 )=   6.9758 eV   Re[Sigma]=   -2213.981046 meV Im[Sigma]=       0.000000 meV     Z=       0.126471 lam=       6.906932
     -------------------------------------------------------------------


     ik =      37 coord.:    0.3285714   0.3285714   0.3285714
     -------------------------------------------------------------------
     E(   2 )=  -5.8408 eV   Re[Sigma]=    1502.687743 meV Im[Sigma]=       0.000000 meV     Z=       0.241622 lam=       3.138694
     E(   3 )=  -1.5490 eV   Re[Sigma]=    1644.731954 meV Im[Sigma]=       0.000000 meV     Z=       0.211367 lam=       3.731109
     E(   4 )=  -1.5088 eV   Re[Sigma]=    2137.466419 meV Im[Sigma]=       0.000000 meV     Z=       0.136621 lam=       6.319531
     E(   5 )=   1.1148 eV   Re[Sigma]=   -1987.540508 meV Im[Sigma]=       0.000000 meV     Z=       0.154978 lam=       5.452530
     E(   6 )=   2.9352 eV   Re[Sigma]=   -2315.001275 meV Im[Sigma]=       0.000000 meV     Z=       0.119177 lam=       7.390849
     E(   7 )=   2.9781 eV   Re[Sigma]=   -2012.991338 meV Im[Sigma]=       0.000000 meV     Z=       0.152857 lam=       5.542056
     E(   8 )=   6.9520 eV   Re[Sigma]=   -2170.608576 meV Im[Sigma]=       0.000000 meV     Z=       0.131324 lam=       6.614760
     -------------------------------------------------------------------


     ik =      38 coord.:    0.3238095   0.3238095   0.3238095
     -------------------------------------------------------------------
     E(   2 )=  -5.7667 eV   Re[Sigma]=    1497.733886 meV Im[Sigma]=       0.000000 meV     Z=       0.242770 lam=       3.119123
     E(   3 )=  -1.5382 eV   Re[Sigma]=    1640.824272 meV Im[Sigma]=       0.000000 meV     Z=       0.212171 lam=       3.713180
     E(   4 )=  -1.4992 eV   Re[Sigma]=    2151.126021 meV Im[Sigma]=       0.000000 meV     Z=       0.135090 lam=       6.402499
     E(   5 )=   1.1283 eV   Re[Sigma]=   -1995.766124 meV Im[Sigma]=       0.000000 meV     Z=       0.153912 lam=       5.497235
     E(   6 )=   2.9386 eV   Re[Sigma]=   -2323.748954 meV Im[Sigma]=       0.000000 meV     Z=       0.118374 lam=       7.447837
     E(   7 )=   2.9801 eV   Re[Sigma]=   -1991.326611 meV Im[Sigma]=       0.000000 meV     Z=       0.155665 lam=       5.424038
     E(   8 )=   6.9256 eV   Re[Sigma]=   -2128.318126 meV Im[Sigma]=       0.000000 meV     Z=       0.136251 lam=       6.339390
     -------------------------------------------------------------------


     ik =      39 coord.:    0.3190476   0.3190476   0.3190476
     -------------------------------------------------------------------
     E(   2 )=  -5.6919 eV   Re[Sigma]=    1492.891654 meV Im[Sigma]=       0.000000 meV     Z=       0.243898 lam=       3.100082
     E(   3 )=  -1.5273 eV   Re[Sigma]=    1636.710597 meV Im[Sigma]=       0.000000 meV     Z=       0.213022 lam=       3.694354
     E(   4 )=  -1.4897 eV   Re[Sigma]=    2165.333773 meV Im[Sigma]=       0.000000 meV     Z=       0.133530 lam=       6.488939
     E(   5 )=   1.1422 eV   Re[Sigma]=   -2003.940712 meV Im[Sigma]=       0.000000 meV     Z=       0.152863 lam=       5.541786
     E(   6 )=   2.9413 eV   Re[Sigma]=   -2333.108688 meV Im[Sigma]=       0.000000 meV     Z=       0.117530 lam=       7.508444
     E(   7 )=   2.9813 eV   Re[Sigma]=   -1968.871866 meV Im[Sigma]=       0.000000 meV     Z=       0.158655 lam=       5.302984
     E(   8 )=   6.8965 eV   Re[Sigma]=   -2087.220789 meV Im[Sigma]=       0.000000 meV     Z=       0.141235 lam=       6.080418
     -------------------------------------------------------------------


     ik =      40 coord.:    0.3142857   0.3142857   0.3142857
     -------------------------------------------------------------------
     E(   2 )=  -5.6164 eV   Re[Sigma]=    1488.146605 meV Im[Sigma]=       0.000000 meV     Z=       0.245007 lam=       3.081510
     E(   3 )=  -1.5164 eV   Re[Sigma]=    1632.381678 meV Im[Sigma]=       0.000000 meV     Z=       0.213922 lam=       3.674600
     E(   4 )=  -1.4805 eV   Re[Sigma]=    2180.049054 meV Im[Sigma]=       0.000000 meV     Z=       0.131950 lam=       6.578635
     E(   5 )=   1.1564 eV   Re[Sigma]=   -2012.053415 meV Im[Sigma]=       0.000000 meV     Z=       0.151834 lam=       5.586124
     E(   6 )=   2.9434 eV   Re[Sigma]=   -2343.089923 meV Im[Sigma]=       0.000000 meV     Z=       0.116648 lam=       7.572775
     E(   7 )=   2.9816 eV   Re[Sigma]=   -1945.771542 meV Im[Sigma]=       0.000000 meV     Z=       0.161817 lam=       5.179813
     E(   8 )=   6.8646 eV   Re[Sigma]=   -2047.400766 meV Im[Sigma]=       0.000000 meV     Z=       0.146257 lam=       5.837274
     -------------------------------------------------------------------


     ik =      41 coord.:    0.3095238   0.3095238   0.3095238
     -------------------------------------------------------------------
     E(   2 )=  -5.5401 eV   Re[Sigma]=    1483.486316 meV Im[Sigma]=       0.000000 meV     Z=       0.246102 lam=       3.063353
     E(   3 )=  -1.5055 eV   Re[Sigma]=    1627.830869 meV Im[Sigma]=       0.000000 meV     Z=       0.214874 lam=       3.653900
     E(   4 )=  -1.4714 eV   Re[Sigma]=    2195.227720 meV Im[Sigma]=       0.000000 meV     Z=       0.130355 lam=       6.671350
     E(   5 )=   1.1710 eV   Re[Sigma]=   -2020.094028 meV Im[Sigma]=       0.000000 meV     Z=       0.150825 lam=       5.630192
     E(   6 )=   2.9448 eV   Re[Sigma]=   -2353.697816 meV Im[Sigma]=       0.000000 meV     Z=       0.115728 lam=       7.640921
     E(   7 )=   2.9810 eV   Re[Sigma]=   -1922.170992 meV Im[Sigma]=       0.000000 meV     Z=       0.165141 lam=       5.055424
     E(   8 )=   6.8300 eV   Re[Sigma]=   -2008.919609 meV Im[Sigma]=       0.000000 meV     Z=       0.151302 lam=       5.609284
     -------------------------------------------------------------------


     ik =      42 coord.:    0.3047619   0.3047619   0.3047619
     -------------------------------------------------------------------
     E(   2 )=  -5.4630 eV   Re[Sigma]=    1478.900214 meV Im[Sigma]=       0.000000 meV     Z=       0.247184 lam=       3.045566
     E(   3 )=  -1.4945 eV   Re[Sigma]=    1623.054224 meV Im[Sigma]=       0.000000 meV     Z=       0.215878 lam=       3.632252
     E(   4 )=  -1.4624 eV   Re[Sigma]=    2210.822183 meV Im[Sigma]=       0.000000 meV     Z=       0.128753 lam=       6.766822
     E(   5 )=   1.1859 eV   Re[Sigma]=   -2028.052980 meV Im[Sigma]=       0.000000 meV     Z=       0.149837 lam=       5.673937
     E(   6 )=   2.9455 eV   Re[Sigma]=   -2364.933005 meV Im[Sigma]=       0.000000 meV     Z=       0.114772 lam=       7.712954
     E(   7 )=   2.9794 eV   Re[Sigma]=   -1898.214155 meV Im[Sigma]=       0.000000 meV     Z=       0.168615 lam=       4.930672
     E(   8 )=   6.7926 eV   Re[Sigma]=   -1971.819926 meV Im[Sigma]=       0.000000 meV     Z=       0.156355 lam=       5.395719
     -------------------------------------------------------------------


     ik =      43 coord.:    0.3000000   0.3000000   0.3000000
     -------------------------------------------------------------------
     E(   2 )=  -5.3852 eV   Re[Sigma]=    1474.379422 meV Im[Sigma]=       0.000000 meV     Z=       0.248256 lam=       3.028107
     E(   3 )=  -1.4834 eV   Re[Sigma]=    1618.050567 meV Im[Sigma]=       0.000000 meV     Z=       0.216936 lam=       3.609662
     E(   4 )=  -1.4535 eV   Re[Sigma]=    2226.781477 meV Im[Sigma]=       0.000000 meV     Z=       0.127149 lam=       6.864768
     E(   5 )=   1.2011 eV   Re[Sigma]=   -2035.921306 meV Im[Sigma]=       0.000000 meV     Z=       0.148869 lam=       5.717308
     E(   6 )=   2.9454 eV   Re[Sigma]=   -2376.791466 meV Im[Sigma]=       0.000000 meV     Z=       0.113780 lam=       7.788929
     E(   7 )=   2.9769 eV   Re[Sigma]=   -1874.041334 meV Im[Sigma]=       0.000000 meV     Z=       0.172225 lam=       4.806358
     E(   8 )=   6.7524 eV   Re[Sigma]=   -1936.128580 meV Im[Sigma]=       0.000000 meV     Z=       0.161399 lam=       5.195827
     -------------------------------------------------------------------


     ik =      44 coord.:    0.2952381   0.2952381   0.2952381
     -------------------------------------------------------------------
     E(   2 )=  -5.3067 eV   Re[Sigma]=    1469.916633 meV Im[Sigma]=       0.000000 meV     Z=       0.249318 lam=       3.010943
     E(   3 )=  -1.4723 eV   Re[Sigma]=    1612.821534 meV Im[Sigma]=       0.000000 meV     Z=       0.218048 lam=       3.586152
     E(   4 )=  -1.4448 eV   Re[Sigma]=    2243.051337 meV Im[Sigma]=       0.000000 meV     Z=       0.125551 lam=       6.964881
     E(   5 )=   1.2167 eV   Re[Sigma]=   -2043.690595 meV Im[Sigma]=       0.000000 meV     Z=       0.147923 lam=       5.760257
     E(   6 )=   2.9445 eV   Re[Sigma]=   -2389.264324 meV Im[Sigma]=       0.000000 meV     Z=       0.112754 lam=       7.868883
     E(   7 )=   2.9734 eV   Re[Sigma]=   -1849.787274 meV Im[Sigma]=       0.000000 meV     Z=       0.175957 lam=       4.683216
     E(   8 )=   6.7095 eV   Re[Sigma]=   -1901.859409 meV Im[Sigma]=       0.000000 meV     Z=       0.166421 lam=       5.008855
     -------------------------------------------------------------------


     ik =      45 coord.:    0.2904762   0.2904762   0.2904762
     -------------------------------------------------------------------
     E(   2 )=  -5.2274 eV   Re[Sigma]=    1465.505991 meV Im[Sigma]=       0.000000 meV     Z=       0.250373 lam=       2.994046
     E(   3 )=  -1.4612 eV   Re[Sigma]=    1607.371590 meV Im[Sigma]=       0.000000 meV     Z=       0.219214 lam=       3.561755
     E(   4 )=  -1.4361 eV   Re[Sigma]=    2259.574281 meV Im[Sigma]=       0.000000 meV     Z=       0.123964 lam=       7.066835
     E(   5 )=   1.2326 eV   Re[Sigma]=   -2051.352933 meV Im[Sigma]=       0.000000 meV     Z=       0.147000 lam=       5.802738
     E(   6 )=   2.9429 eV   Re[Sigma]=   -2402.337586 meV Im[Sigma]=       0.000000 meV     Z=       0.111697 lam=       7.952828
     E(   7 )=   2.9690 eV   Re[Sigma]=   -1825.579621 meV Im[Sigma]=       0.000000 meV     Z=       0.179794 lam=       4.561909
     E(   8 )=   6.6637 eV   Re[Sigma]=   -1869.015535 meV Im[Sigma]=       0.000000 meV     Z=       0.171407 lam=       4.834063
     -------------------------------------------------------------------


     ik =      46 coord.:    0.2857143   0.2857143   0.2857143
     -------------------------------------------------------------------
     E(   2 )=  -5.1474 eV   Re[Sigma]=    1461.142999 meV Im[Sigma]=       0.000000 meV     Z=       0.251421 lam=       2.977392
     E(   3 )=  -1.4499 eV   Re[Sigma]=    1601.708004 meV Im[Sigma]=       0.000000 meV     Z=       0.220433 lam=       3.536517
     E(   4 )=  -1.4275 eV   Re[Sigma]=    2276.289700 meV Im[Sigma]=       0.000000 meV     Z=       0.122395 lam=       7.170281
     E(   5 )=   1.2487 eV   Re[Sigma]=   -2058.900828 meV Im[Sigma]=       0.000000 meV     Z=       0.146098 lam=       5.844707
     E(   6 )=   2.9403 eV   Re[Sigma]=   -2415.991788 meV Im[Sigma]=       0.000000 meV     Z=       0.110610 lam=       8.040748
     E(   7 )=   2.9636 eV   Re[Sigma]=   -1801.537766 meV Im[Sigma]=       0.000000 meV     Z=       0.183721 lam=       4.443025
     E(   8 )=   6.6152 eV   Re[Sigma]=   -1837.591313 meV Im[Sigma]=       0.000000 meV     Z=       0.176344 lam=       4.670738
     -------------------------------------------------------------------


     ik =      47 coord.:    0.2809524   0.2809524   0.2809524
     -------------------------------------------------------------------
     E(   2 )=  -5.0667 eV   Re[Sigma]=    1456.824431 meV Im[Sigma]=       0.000000 meV     Z=       0.252464 lam=       2.960961
     E(   3 )=  -1.4386 eV   Re[Sigma]=    1595.840801 meV Im[Sigma]=       0.000000 meV     Z=       0.221705 lam=       3.510492
     E(   4 )=  -1.4190 eV   Re[Sigma]=    2293.133953 meV Im[Sigma]=       0.000000 meV     Z=       0.120848 lam=       7.274851
     E(   5 )=   1.2652 eV   Re[Sigma]=   -2066.327122 meV Im[Sigma]=       0.000000 meV     Z=       0.145220 lam=       5.886122
     E(   6 )=   2.9370 eV   Re[Sigma]=   -2430.201583 meV Im[Sigma]=       0.000000 meV     Z=       0.109498 lam=       8.132598
     E(   7 )=   2.9573 eV   Re[Sigma]=   -1777.772056 meV Im[Sigma]=       0.000000 meV     Z=       0.187720 lam=       4.327073
     E(   8 )=   6.5639 eV   Re[Sigma]=   -1807.573976 meV Im[Sigma]=       0.000000 meV     Z=       0.181219 lam=       4.518195
     -------------------------------------------------------------------


     ik =      48 coord.:    0.2761905   0.2761905   0.2761905
     -------------------------------------------------------------------
     E(   2 )=  -4.9852 eV   Re[Sigma]=    1452.548269 meV Im[Sigma]=       0.000000 meV     Z=       0.253502 lam=       2.944739
     E(   3 )=  -1.4272 eV   Re[Sigma]=    1589.782675 meV Im[Sigma]=       0.000000 meV     Z=       0.223028 lam=       3.483749
     E(   4 )=  -1.4104 eV   Re[Sigma]=    2310.040474 meV Im[Sigma]=       0.000000 meV     Z=       0.119330 lam=       7.380157
     E(   5 )=   1.2820 eV   Re[Sigma]=   -2073.624885 meV Im[Sigma]=       0.000000 meV     Z=       0.144364 lam=       5.926943
     E(   6 )=   2.9328 eV   Re[Sigma]=   -2444.935280 meV Im[Sigma]=       0.000000 meV     Z=       0.108362 lam=       8.228293
     E(   7 )=   2.9501 eV   Re[Sigma]=   -1754.383326 meV Im[Sigma]=       0.000000 meV     Z=       0.191773 lam=       4.214488
     E(   8 )=   6.5099 eV   Re[Sigma]=   -1778.945016 meV Im[Sigma]=       0.000000 meV     Z=       0.186019 lam=       4.375783
     -------------------------------------------------------------------


     ik =      49 coord.:    0.2714286   0.2714286   0.2714286
     -------------------------------------------------------------------
     E(   2 )=  -4.9030 eV   Re[Sigma]=    1448.313642 meV Im[Sigma]=       0.000000 meV     Z=       0.254536 lam=       2.928714
     E(   3 )=  -1.4157 eV   Re[Sigma]=    1583.548881 meV Im[Sigma]=       0.000000 meV     Z=       0.224398 lam=       3.456365
     E(   4 )=  -1.4019 eV   Re[Sigma]=    2326.939873 meV Im[Sigma]=       0.000000 meV     Z=       0.117844 lam=       7.485792
     E(   5 )=   1.2990 eV   Re[Sigma]=   -2080.787309 meV Im[Sigma]=       0.000000 meV     Z=       0.143531 lam=       5.967127
     E(   6 )=   2.9277 eV   Re[Sigma]=   -2460.154374 meV Im[Sigma]=       0.000000 meV     Z=       0.107207 lam=       8.327706
     E(   7 )=   2.9419 eV   Re[Sigma]=   -1731.462711 meV Im[Sigma]=       0.000000 meV     Z=       0.195862 lam=       4.105630
     E(   8 )=   6.4533 eV   Re[Sigma]=   -1751.681346 meV Im[Sigma]=       0.000000 meV     Z=       0.190735 lam=       4.242886
     -------------------------------------------------------------------


     ik =      50 coord.:    0.2666667   0.2666667   0.2666667
     -------------------------------------------------------------------
     E(   2 )=  -4.8201 eV   Re[Sigma]=    1444.120784 meV Im[Sigma]=       0.000000 meV     Z=       0.255566 lam=       2.912880
     E(   3 )=  -1.4041 eV   Re[Sigma]=    1577.157096 meV Im[Sigma]=       0.000000 meV     Z=       0.225814 lam=       3.428424
     E(   4 )=  -1.3933 eV   Re[Sigma]=    2343.760065 meV Im[Sigma]=       0.000000 meV     Z=       0.116396 lam=       7.591331
     E(   5 )=   1.3163 eV   Re[Sigma]=   -2087.807575 meV Im[Sigma]=       0.000000 meV     Z=       0.142722 lam=       6.006632
     E(   6 )=   2.9217 eV   Re[Sigma]=   -2475.813076 meV Im[Sigma]=       0.000000 meV     Z=       0.106037 lam=       8.430662
     E(   7 )=   2.9327 eV   Re[Sigma]=   -1709.091701 meV Im[Sigma]=       0.000000 meV     Z=       0.199968 lam=       4.000794
     E(   8 )=   6.3941 eV   Re[Sigma]=   -1725.756281 meV Im[Sigma]=       0.000000 meV     Z=       0.195354 lam=       4.118924
     -------------------------------------------------------------------


     ik =      51 coord.:    0.2619048   0.2619048   0.2619048
     -------------------------------------------------------------------
     E(   2 )=  -4.7365 eV   Re[Sigma]=    1439.970996 meV Im[Sigma]=       0.000000 meV     Z=       0.256592 lam=       2.897235
     E(   3 )=  -1.3923 eV   Re[Sigma]=    1570.627264 meV Im[Sigma]=       0.000000 meV     Z=       0.227272 lam=       3.400020
     E(   4 )=  -1.3846 eV   Re[Sigma]=    2360.426390 meV Im[Sigma]=       0.000000 meV     Z=       0.114991 lam=       7.696330
     E(   5 )=   1.3338 eV   Re[Sigma]=   -2094.678725 meV Im[Sigma]=       0.000000 meV     Z=       0.141936 lam=       6.045417
     E(   6 )=   2.9149 eV   Re[Sigma]=   -2491.857900 meV Im[Sigma]=       0.000000 meV     Z=       0.104856 lam=       8.536929
     E(   7 )=   2.9227 eV   Re[Sigma]=   -1687.342373 meV Im[Sigma]=       0.000000 meV     Z=       0.204073 lam=       3.900211
     E(   8 )=   6.3323 eV   Re[Sigma]=   -1701.140354 meV Im[Sigma]=       0.000000 meV     Z=       0.199866 lam=       4.003350
     -------------------------------------------------------------------


     ik =      52 coord.:    0.2571429   0.2571429   0.2571429
     -------------------------------------------------------------------
     E(   2 )=  -4.6522 eV   Re[Sigma]=    1435.866625 meV Im[Sigma]=       0.000000 meV     Z=       0.257614 lam=       2.881779
     E(   3 )=  -1.3804 eV   Re[Sigma]=    1563.981415 meV Im[Sigma]=       0.000000 meV     Z=       0.228767 lam=       3.371255
     E(   4 )=  -1.3758 eV   Re[Sigma]=    2376.861764 meV Im[Sigma]=       0.000000 meV     Z=       0.113632 lam=       7.800329
     E(   5 )=   1.3516 eV   Re[Sigma]=   -2101.393520 meV Im[Sigma]=       0.000000 meV     Z=       0.141174 lam=       6.083434
     E(   6 )=   2.9071 eV   Re[Sigma]=   -2508.227307 meV Im[Sigma]=       0.000000 meV     Z=       0.103668 lam=       8.646212
     E(   7 )=   2.9118 eV   Re[Sigma]=   -1666.277777 meV Im[Sigma]=       0.000000 meV     Z=       0.208157 lam=       3.804055
     E(   8 )=   6.2681 eV   Re[Sigma]=   -1677.802006 meV Im[Sigma]=       0.000000 meV     Z=       0.204263 lam=       3.895654
     -------------------------------------------------------------------


     ik =      53 coord.:    0.2523810   0.2523810   0.2523810
     -------------------------------------------------------------------
     E(   2 )=  -4.5672 eV   Re[Sigma]=    1431.811043 meV Im[Sigma]=       0.000000 meV     Z=       0.258631 lam=       2.866517
     E(   3 )=  -1.3684 eV   Re[Sigma]=    1557.243483 meV Im[Sigma]=       0.000000 meV     Z=       0.230296 lam=       3.342234
     E(   4 )=  -1.3668 eV   Re[Sigma]=    2392.986846 meV Im[Sigma]=       0.000000 meV     Z=       0.112324 lam=       7.902848
     E(   5 )=   1.3696 eV   Re[Sigma]=   -2107.944292 meV Im[Sigma]=       0.000000 meV     Z=       0.140437 lam=       6.120636
[...]
      214        8        9.0868        7.5789     -322.3104        2.1950
      214        8        9.0868        7.6842     -346.8394        2.4742
      214        8        9.0868        7.7895     -374.5962        2.8108
      214        8        9.0868        7.8947     -406.2689        3.2217
      214        8        9.0868        8.0000     -442.7592        3.7310
      215        8        9.1346        6.0000     -134.4641        0.6133
      215        8        9.1346        6.1053     -141.1225        0.6525
      215        8        9.1346        6.2105     -148.2134        0.6955
      215        8        9.1346        6.3158     -155.7804        0.7430
      215        8        9.1346        6.4211     -163.8731        0.7955
      215        8        9.1346        6.5263     -172.5484        0.8538
      215        8        9.1346        6.6316     -181.8718        0.9188
      215        8        9.1346        6.7368     -191.9188        0.9915
      215        8        9.1346        6.8421     -202.7773        1.0733
      215        8        9.1346        6.9474     -214.5500        1.1655
      215        8        9.1346        7.0526     -227.3578        1.2703
      215        8        9.1346        7.1579     -241.3440        1.3899
      215        8        9.1346        7.2632     -256.6795        1.5272
      215        8        9.1346        7.3684     -273.5704        1.6861
      215        8        9.1346        7.4737     -292.2671        1.8713
      215        8        9.1346        7.5789     -313.0770        2.0888
      215        8        9.1346        7.6842     -336.3821        2.3469
      215        8        9.1346        7.7895     -362.6627        2.6564
      215        8        9.1346        7.8947     -392.5323        3.0318
      215        8        9.1346        8.0000     -426.7868        3.4937
      216        8        9.1787        6.0000     -132.3348        0.5990
      216        8        9.1787        6.1053     -138.8357        0.6368
      216        8        9.1787        6.2105     -145.7535        0.6783
      216        8        9.1787        6.3158     -153.1295        0.7239
      216        8        9.1787        6.4211     -161.0109        0.7744
      216        8        9.1787        6.5263     -169.4516        0.8303
      216        8        9.1787        6.6316     -178.5134        0.8926
      216        8        9.1787        6.7368     -188.2677        0.9621
      216        8        9.1787        6.8421     -198.7970        1.0401
      216        8        9.1787        6.9474     -210.1979        1.1279
      216        8        9.1787        7.0526     -222.5834        1.2275
      216        8        9.1787        7.1579     -236.0872        1.3408
      216        8        9.1787        7.2632     -250.8685        1.4707
      216        8        9.1787        7.3684     -267.1181        1.6205
      216        8        9.1787        7.4737     -285.0669        1.7944
      216        8        9.1787        7.5789     -304.9976        1.9981
      216        8        9.1787        7.6842     -327.2589        2.2387
      216        8        9.1787        7.7895     -352.2874        2.5258
      216        8        9.1787        7.8947     -380.6366        2.8722
      216        8        9.1787        8.0000     -413.0193        3.2957
      217        8        9.2189        6.0000     -130.4687        0.5866
      217        8        9.2189        6.1053     -136.8329        0.6232
      217        8        9.2189        6.2105     -143.6005        0.6633
      217        8        9.2189        6.3158     -150.8110        0.7074
      217        8        9.2189        6.4211     -158.5096        0.7561
      217        8        9.2189        6.5263     -166.7475        0.8100
      217        8        9.2189        6.6316     -175.5836        0.8699
      217        8        9.2189        6.7368     -185.0856        0.9367
      217        8        9.2189        6.8421     -195.3318        1.0115
      217        8        9.2189        6.9474     -206.4133        1.0957
      217        8        9.2189        7.0526     -218.4370        1.1908
      217        8        9.2189        7.1579     -231.5285        1.2990
      217        8        9.2189        7.2632     -245.8371        1.4226
      217        8        9.2189        7.3684     -261.5411        1.5647
      217        8        9.2189        7.4737     -278.8558        1.7294
      217        8        9.2189        7.5789     -298.0433        1.9215
      217        8        9.2189        7.6842     -319.4259        2.1477
      217        8        9.2189        7.7895     -343.4048        2.4165
      217        8        9.2189        7.8947     -370.4858        2.7394
      217        8        9.2189        8.0000     -401.3162        3.1320
      218        8        9.2551        6.0000     -128.8556        0.5759
      218        8        9.2551        6.1053     -135.1025        0.6115
      218        8        9.2551        6.2105     -141.7414        0.6505
      218        8        9.2551        6.3158     -148.8103        0.6933
      218        8        9.2551        6.4211     -156.3525        0.7405
      218        8        9.2551        6.5263     -164.4172        0.7927
      218        8        9.2551        6.6316     -173.0608        0.8506
      218        8        9.2551        6.7368     -182.3478        0.9151
      218        8        9.2551        6.8421     -192.3532        0.9873
      218        8        9.2551        6.9474     -203.1636        1.0683
      218        8        9.2551        7.0526     -214.8805        1.1598
      218        8        9.2551        7.1579     -227.6230        1.2636
      218        8        9.2551        7.2632     -241.5323        1.3819
      218        8        9.2551        7.3684     -256.7767        1.5178
      218        8        9.2551        7.4737     -273.5585        1.6748
      218        8        9.2551        7.5789     -292.1232        1.8575
      218        8        9.2551        7.6842     -312.7718        2.0719
      218        8        9.2551        7.7895     -335.8772        2.3258
      218        8        9.2551        7.8947     -361.9074        2.6296
      218        8        9.2551        8.0000     -391.4577        2.9974
      219        8        9.2873        6.0000     -127.4869        0.5670
      219        8        9.2873        6.1053     -133.6349        0.6017
      219        8        9.2873        6.2105     -140.1653        0.6397
      219        8        9.2873        6.3158     -147.1150        0.6814
      219        8        9.2873        6.4211     -154.5257        0.7274
      219        8        9.2873        6.5263     -162.4449        0.7782
      219        8        9.2873        6.6316     -170.9269        0.8344
      219        8        9.2873        6.7368     -180.0338        0.8971
      219        8        9.2873        6.8421     -189.8374        0.9670
      219        8        9.2873        6.9474     -200.4211        1.0455
      219        8        9.2873        7.0526     -211.8818        1.1339
      219        8        9.2873        7.1579     -224.3334        1.2341
      219        8        9.2873        7.2632     -237.9105        1.3482
      219        8        9.2873        7.3684     -252.7731        1.4789
      219        8        9.2873        7.4737     -269.1132        1.6295
      219        8        9.2873        7.5789     -287.1631        1.8046
      219        8        9.2873        7.6842     -307.2065        2.0094
      219        8        9.2873        7.7895     -329.5939        2.2513
      219        8        9.2873        7.8947     -354.7632        2.5399
      219        8        9.2873        8.0000     -383.2692        2.8879
      220        8        9.3154        6.0000     -126.3427        0.5595
      220        8        9.3154        6.1053     -132.4086        0.5935
      220        8        9.3154        6.2105     -138.8490        0.6307
      220        8        9.3154        6.3158     -145.6998        0.6716
      220        8        9.3154        6.4211     -153.0014        0.7165
      220        8        9.3154        6.5263     -160.8001        0.7661
      220        8        9.3154        6.6316     -169.1482        0.8210
      220        8        9.3154        6.7368     -178.1062        0.8821
      220        8        9.3154        6.8421     -187.7432        0.9503
      220        8        9.3154        6.9474     -198.1398        1.0266
      220        8        9.3154        7.0526     -209.3895        1.1126
      220        8        9.3154        7.1579     -221.6017        1.2098
      220        8        9.3154        7.2632     -234.9059        1.3204
      220        8        9.3154        7.3684     -249.4553        1.4470
      220        8        9.3154        7.4737     -265.4338        1.5926
      220        8        9.3154        7.5789     -283.0630        1.7614
      220        8        9.3154        7.6842     -302.6131        1.9586
      220        8        9.3154        7.7895     -324.4168        2.1909
      220        8        9.3154        7.8947     -348.8884        2.4672
      220        8        9.3154        8.0000     -376.5507        2.7995
      221        8        9.3393        6.0000     -125.3927        0.5534
      221        8        9.3393        6.1053     -131.3908        0.5868
      221        8        9.3393        6.2105     -137.7571        0.6234
      221        8        9.3393        6.3158     -144.5265        0.6635
      221        8        9.3393        6.4211     -151.7385        0.7076
      221        8        9.3393        6.5263     -159.4382        0.7562
      221        8        9.3393        6.6316     -167.6766        0.8100
      221        8        9.3393        6.7368     -176.5124        0.8699
      221        8        9.3393        6.8421     -186.0131        0.9365
      221        8        9.3393        6.9474     -196.2566        1.0112
      221        8        9.3393        7.0526     -207.3338        1.0952
      221        8        9.3393        7.1579     -219.3508        1.1901
      221        8        9.3393        7.2632     -232.4326        1.2979
      221        8        9.3393        7.3684     -246.7274        1.4210
      221        8        9.3393        7.4737     -262.4123        1.5626
      221        8        9.3393        7.5789     -279.7007        1.7264
      221        8        9.3393        7.6842     -298.8519        1.9175
      221        8        9.3393        7.7895     -320.1847        2.1422
      221        8        9.3393        7.8947     -344.0949        2.4089
      221        8        9.3393        8.0000     -371.0807        2.7288
      222        8        9.3590        6.0000     -124.6605        0.5487
      222        8        9.3590        6.1053     -130.6069        0.5817
      222        8        9.3590        6.2105     -136.9167        0.6177
      222        8        9.3590        6.3158     -143.6241        0.6573
      222        8        9.3590        6.4211     -150.7679        0.7008
      222        8        9.3590        6.5263     -158.3923        0.7487
      222        8        9.3590        6.6316     -166.5473        0.8017
      222        8        9.3590        6.7368     -175.2905        0.8606
      222        8        9.3590        6.8421     -184.6877        0.9262
      222        8        9.3590        6.9474     -194.8155        0.9996
      222        8        9.3590        7.0526     -205.7623        1.0820
      222        8        9.3590        7.1579     -217.6318        1.1752
      222        8        9.3590        7.2632     -230.5459        1.2809
      222        8        9.3590        7.3684     -244.6489        1.4015
      222        8        9.3590        7.4737     -260.1130        1.5401
      222        8        9.3590        7.5789     -277.1454        1.7002
      222        8        9.3590        7.6842     -295.9977        1.8868
      222        8        9.3590        7.7895     -316.9783        2.1058
      222        8        9.3590        7.8947     -340.4697        2.3654
      222        8        9.3590        8.0000     -366.9517        2.6762
      223        8        9.3743        6.0000     -124.1401        0.5454
      223        8        9.3743        6.1053     -130.0505        0.5781
      223        8        9.3743        6.2105     -136.3207        0.6138
      223        8        9.3743        6.3158     -142.9848        0.6530
      223        8        9.3743        6.4211     -150.0811        0.6960
      223        8        9.3743        6.5263     -157.6530        0.7435
      223        8        9.3743        6.6316     -165.7501        0.7959
      223        8        9.3743        6.7368     -174.4288        0.8541
      223        8        9.3743        6.8421     -183.7544        0.9190
      223        8        9.3743        6.9474     -193.8018        0.9915
      223        8        9.3743        7.0526     -204.6584        1.0729
      223        8        9.3743        7.1579     -216.4260        1.1649
      223        8        9.3743        7.2632     -229.2243        1.2691
      223        8        9.3743        7.3684     -243.1951        1.3881
      223        8        9.3743        7.4737     -258.5073        1.5246
      223        8        9.3743        7.5789     -275.3640        1.6822
      223        8        9.3743        7.6842     -294.0113        1.8657
      223        8        9.3743        7.7895     -314.7509        2.0809
      223        8        9.3743        7.8947     -337.9562        2.3357
      223        8        9.3743        8.0000     -364.0950        2.6404
      224        8        9.3853        6.0000     -123.8411        0.5435
      224        8        9.3853        6.1053     -129.7310        0.5761
      224        8        9.3853        6.2105     -135.9791        0.6116
      224        8        9.3853        6.3158     -142.6189        0.6506
      224        8        9.3853        6.4211     -149.6885        0.6934
      224        8        9.3853        6.5263     -157.2310        0.7405
      224        8        9.3853        6.6316     -165.2956        0.7927
      224        8        9.3853        6.7368     -173.9384        0.8505
      224        8        9.3853        6.8421     -183.2239        0.9149
      224        8        9.3853        6.9474     -193.2266        0.9870
      224        8        9.3853        7.0526     -204.0330        1.0679
      224        8        9.3853        7.1579     -215.7439        1.1591
      224        8        9.3853        7.2632     -228.4781        1.2626
      224        8        9.3853        7.3684     -242.3757        1.3806
      224        8        9.3853        7.4737     -257.6039        1.5160
      224        8        9.3853        7.5789     -274.3635        1.6723
      224        8        9.3853        7.6842     -292.8979        1.8541
      224        8        9.3853        7.7895     -313.5049        2.0672
      224        8        9.3853        7.8947     -336.5530        2.3194
      224        8        9.3853        8.0000     -362.5037        2.6207
      225        8        9.3919        6.0000     -123.7799        0.5432
      225        8        9.3919        6.1053     -129.6661        0.5757
      225        8        9.3919        6.2105     -135.9099        0.6112
      225        8        9.3919        6.3158     -142.5452        0.6501
      225        8        9.3919        6.4211     -149.6098        0.6929
      225        8        9.3919        6.5263     -157.1470        0.7400
      225        8        9.3919        6.6316     -165.2056        0.7921
      225        8        9.3919        6.7368     -173.8419        0.8499
      225        8        9.3919        6.8421     -183.1201        0.9142
      225        8        9.3919        6.9474     -193.1148        0.9862
      225        8        9.3919        7.0526     -203.9122        1.0670
      225        8        9.3919        7.1579     -215.6130        1.1581
      225        8        9.3919        7.2632     -228.3358        1.2615
      225        8        9.3919        7.3684     -242.2205        1.3793
      225        8        9.3919        7.4737     -257.4340        1.5145
      225        8        9.3919        7.5789     -274.1767        1.6706
      225        8        9.3919        7.6842     -292.6915        1.8521
      225        8        9.3919        7.7895     -313.2757        2.0649
      225        8        9.3919        7.8947     -336.2968        2.3166
      225        8        9.3919        8.0000     -362.2153        2.6174
      226        8        9.3941        6.0000     -123.9622        0.5444
      226        8        9.3941        6.1053     -129.8614        0.5770
      226        8        9.3941        6.2105     -136.1194        0.6126
      226        8        9.3941        6.3158     -142.7703        0.6517
      226        8        9.3941        6.4211     -149.8521        0.6946
      226        8        9.3941        6.5263     -157.4082        0.7419
      226        8        9.3941        6.6316     -165.4878        0.7942
      226        8        9.3941        6.7368     -174.1474        0.8522
      226        8        9.3941        6.8421     -183.4516        0.9168
      226        8        9.3941        6.9474     -193.4754        0.9891
      226        8        9.3941        7.0526     -204.3056        1.0703
      226        8        9.3941        7.1579     -216.0435        1.1619
      226        8        9.3941        7.2632     -228.8084        1.2658
      226        8        9.3941        7.3684     -242.7412        1.3842
      226        8        9.3941        7.4737     -258.0101        1.5201
      226        8        9.3941        7.5789     -274.8168        1.6771
      226        8        9.3941        7.6842     -293.4063        1.8598
      226        8        9.3941        7.7895     -314.0783        2.0740
      226        8        9.3941        7.8947     -337.2037        2.3274
      226        8        9.3941        8.0000     -363.2471        2.6304
  
     ===================================================================
     Memory usage:  VmHWM =        50Mb
                   VmPeak =       239Mb
     ===================================================================


     Unfolding on the coarse grid
     elphon_wrap  :      6.93s CPU      6.99s WALL (       1 calls)

     INITIALIZATION: 

     init_vloc    :      0.01s CPU      0.00s WALL (       3 calls)
     init_us_1    :      0.04s CPU      0.04s WALL (       3 calls)


     Electron-Phonon interpolation
     ephwann      :     16.44s CPU     16.61s WALL (       1 calls)
     ep-interp    :     16.30s CPU     16.48s WALL (     512 calls)

     Ham: step 1  :      0.00s CPU      0.00s WALL (       1 calls)
     Ham: step 2  :      0.00s CPU      0.00s WALL (       1 calls)
     ep: step 1   :      0.00s CPU      0.00s WALL (       6 calls)
     ep: step 2   :      0.02s CPU      0.01s WALL (       6 calls)
     DynW2B       :      0.04s CPU      0.03s WALL (     512 calls)
     HamW2B       :      8.24s CPU      8.15s WALL (  231876 calls)
     ephW2Bp      :      0.23s CPU      0.24s WALL (     512 calls)


     Total program execution
     EPW          :    47.70s CPU        48.02s WALL

                                                                                          
 Please consider citing:                                                                  
 S. Ponce, E. R. Margine, C. Verdi and F. Giustino, Comput. Phys. Commun. 209, 116 (2016) 
                                                                                          
